# vtk DataFile Version 3.0
MOAB 5.4.1
ASCII
DATASET UNSTRUCTURED_GRID
POINTS 972 double
0 0 -0
80 0 -0
160 0 -0
240 0 -0
320 0 -0
400 0 -0
480 0 -0
560 0 -0
640 0 -0
720 0 -0
800 0 -0
880 0 -0
960 0 -0
1040 0 -0
1120 0 -0
1200 0 -0
1280 0 -0
1360 0 -0
0 80 -0
80 80 -0
160 80 -0
240 80 -0
320 80 -0
400 80 -0
480 80 -0
560 80 -0
640 80 -0
720 80 -0
800 80 -0
880 80 -0
960 80 -0
1040 80 -0
1120 80 -0
1200 80 -0
1280 80 -0
1360 80 -0
0 160 -0
80 160 -0
160 160 -0
240 160 -0
320 160 -0
400 160 -0
480 160 -0
560 160 -0
640 160 -0
720 160 -0
800 160 -0
880 160 -0
960 160 -0
1040 160 -0
1120 160 -0
1200 160 -0
1280 160 -0
1360 160 -0
0 240 -0
80 240 -0
160 240 -0
240 240 -0
320 240 -0
400 240 -0
480 240 -0
560 240 -0
640 240 -0
720 240 -0
800 240 -0
880 240 -0
960 240 -0
1040 240 -0
1120 240 -0
1200 240 -0
1280 240 -0
1360 240 -0
0 320 -0
80 320 -0
160 320 -0
240 320 -0
320 320 -0
400 320 -0
480 320 -0
560 320 -0
640 320 -0
720 320 -0
800 320 -0
880 320 -0
960 320 -0
1040 320 -0
1120 320 -0
1200 320 -0
1280 320 -0
1360 320 -0
0 400 -0
80 400 -0
160 400 -0
240 400 -0
320 400 -0
400 400 -0
480 400 -0
560 400 -0
640 400 -0
720 400 -0
800 400 -0
880 400 -0
960 400 -0
1040 400 -0
1120 400 -0
1200 400 -0
1280 400 -0
1360 400 -0
0 480 -0
80 480 -0
160 480 -0
240 480 -0
320 480 -0
400 480 -0
480 480 -0
560 480 -0
640 480 -0
720 480 -0
800 480 -0
880 480 -0
960 480 -0
1040 480 -0
1120 480 -0
1200 480 -0
1280 480 -0
1360 480 -0
0 560 -0
80 560 -0
160 560 -0
240 560 -0
320 560 -0
400 560 -0
480 560 -0
560 560 -0
640 560 -0
720 560 -0
800 560 -0
880 560 -0
960 560 -0
1040 560 -0
1120 560 -0
1200 560 -0
1280 560 -0
1360 560 -0
0 640 -0
80 640 -0
160 640 -0
240 640 -0
320 640 -0
400 640 -0
480 640 -0
560 640 -0
640 640 -0
720 640 -0
800 640 -0
880 640 -0
960 640 -0
1040 640 -0
1120 640 -0
1200 640 -0
1280 640 -0
1360 640 -0
0 720 -0
80 720 -0
160 720 -0
240 720 -0
320 720 -0
400 720 -0
480 720 -0
560 720 -0
640 720 -0
720 720 -0
800 720 -0
880 720 -0
960 720 -0
1040 720 -0
1120 720 -0
1200 720 -0
1280 720 -0
1360 720 -0
0 800 -0
80 800 -0
160 800 -0
240 800 -0
320 800 -0
400 800 -0
480 800 -0
560 800 -0
640 800 -0
720 800 -0
800 800 -0
880 800 -0
960 800 -0
1040 800 -0
1120 800 -0
1200 800 -0
1280 800 -0
1360 800 -0
0 880 -0
80 880 -0
160 880 -0
240 880 -0
320 880 -0
400 880 -0
480 880 -0
560 880 -0
640 880 -0
720 880 -0
800 880 -0
880 880 -0
960 880 -0
1040 880 -0
1120 880 -0
1200 880 -0
1280 880 -0
1360 880 -0
0 960 -0
80 960 -0
160 960 -0
240 960 -0
320 960 -0
400 960 -0
480 960 -0
560 960 -0
640 960 -0
720 960 -0
800 960 -0
880 960 -0
960 960 -0
1040 960 -0
1120 960 -0
1200 960 -0
1280 960 -0
1360 960 -0
0 1040 -0
80 1040 -0
160 1040 -0
240 1040 -0
320 1040 -0
400 1040 -0
480 1040 -0
560 1040 -0
640 1040 -0
720 1040 -0
800 1040 -0
880 1040 -0
960 1040 -0
1040 1040 -0
1120 1040 -0
1200 1040 -0
1280 1040 -0
1360 1040 -0
0 1120 -0
80 1120 -0
160 1120 -0
240 1120 -0
320 1120 -0
400 1120 -0
480 1120 -0
560 1120 -0
640 1120 -0
720 1120 -0
800 1120 -0
880 1120 -0
960 1120 -0
1040 1120 -0
1120 1120 -0
1200 1120 -0
1280 1120 -0
1360 1120 -0
0 1200 -0
80 1200 -0
160 1200 -0
240 1200 -0
320 1200 -0
400 1200 -0
480 1200 -0
560 1200 -0
640 1200 -0
720 1200 -0
800 1200 -0
880 1200 -0
960 1200 -0
1040 1200 -0
1120 1200 -0
1200 1200 -0
1280 1200 -0
1360 1200 -0
0 1280 -0
80 1280 -0
160 1280 -0
240 1280 -0
320 1280 -0
400 1280 -0
480 1280 -0
560 1280 -0
640 1280 -0
720 1280 -0
800 1280 -0
880 1280 -0
960 1280 -0
1040 1280 -0
1120 1280 -0
1200 1280 -0
1280 1280 -0
1360 1280 -0
0 1360 -0
80 1360 -0
160 1360 -0
240 1360 -0
320 1360 -0
400 1360 -0
480 1360 -0
560 1360 -0
640 1360 -0
720 1360 -0
800 1360 -0
880 1360 -0
960 1360 -0
1040 1360 -0
1120 1360 -0
1200 1360 -0
1280 1360 -0
1360 1360 -0
0 0 -15
80 0 -15
160 0 -15
240 0 -15
320 0 -15
400 0 -15
480 0 -15
560 0 -15
640 0 -15
720 0 -15
800 0 -15
880 0 -15
960 0 -15
1040 0 -15
1120 0 -15
1200 0 -15
1280 0 -15
1360 0 -15
0 80 -15
80 80 -15
160 80 -15
240 80 -15
320 80 -15
400 80 -15
480 80 -15
560 80 -15
640 80 -15
720 80 -15
800 80 -15
880 80 -15
960 80 -15
1040 80 -15
1120 80 -15
1200 80 -15
1280 80 -15
1360 80 -15
0 160 -15
80 160 -15
160 160 -15
240 160 -15
320 160 -15
400 160 -15
480 160 -15
560 160 -15
640 160 -15
720 160 -15
800 160 -15
880 160 -15
960 160 -15
1040 160 -15
1120 160 -15
1200 160 -15
1280 160 -15
1360 160 -15
0 240 -15
80 240 -15
160 240 -15
240 240 -15
320 240 -15
400 240 -15
480 240 -15
560 240 -15
640 240 -15
720 240 -15
800 240 -15
880 240 -15
960 240 -15
1040 240 -15
1120 240 -15
1200 240 -15
1280 240 -15
1360 240 -15
0 320 -15
80 320 -15
160 320 -15
240 320 -15
320 320 -15
400 320 -15
480 320 -15
560 320 -15
640 320 -15
720 320 -15
800 320 -15
880 320 -15
960 320 -15
1040 320 -15
1120 320 -15
1200 320 -15
1280 320 -15
1360 320 -15
0 400 -15
80 400 -15
160 400 -15
240 400 -15
320 400 -15
400 400 -15
480 400 -15
560 400 -15
640 400 -15
720 400 -15
800 400 -15
880 400 -15
960 400 -15
1040 400 -15
1120 400 -15
1200 400 -15
1280 400 -15
1360 400 -15
0 480 -15
80 480 -15
160 480 -15
240 480 -15
320 480 -15
400 480 -15
480 480 -15
560 480 -15
640 480 -15
720 480 -15
800 480 -15
880 480 -15
960 480 -15
1040 480 -15
1120 480 -15
1200 480 -15
1280 480 -15
1360 480 -15
0 560 -15
80 560 -15
160 560 -15
240 560 -15
320 560 -15
400 560 -15
480 560 -15
560 560 -15
640 560 -15
720 560 -15
800 560 -15
880 560 -15
960 560 -15
1040 560 -15
1120 560 -15
1200 560 -15
1280 560 -15
1360 560 -15
0 640 -15
80 640 -15
160 640 -15
240 640 -15
320 640 -15
400 640 -15
480 640 -15
560 640 -15
640 640 -15
720 640 -15
800 640 -15
880 640 -15
960 640 -15
1040 640 -15
1120 640 -15
1200 640 -15
1280 640 -15
1360 640 -15
0 720 -15
80 720 -15
160 720 -15
240 720 -15
320 720 -15
400 720 -15
480 720 -15
560 720 -15
640 720 -15
720 720 -15
800 720 -15
880 720 -15
960 720 -15
1040 720 -15
1120 720 -15
1200 720 -15
1280 720 -15
1360 720 -15
0 800 -15
80 800 -15
160 800 -15
240 800 -15
320 800 -15
400 800 -15
480 800 -15
560 800 -15
640 800 -15
720 800 -15
800 800 -15
880 800 -15
960 800 -15
1040 800 -15
1120 800 -15
1200 800 -15
1280 800 -15
1360 800 -15
0 880 -15
80 880 -15
160 880 -15
240 880 -15
320 880 -15
400 880 -15
480 880 -15
560 880 -15
640 880 -15
720 880 -15
800 880 -15
880 880 -15
960 880 -15
1040 880 -15
1120 880 -15
1200 880 -15
1280 880 -15
1360 880 -15
0 960 -15
80 960 -15
160 960 -15
240 960 -15
320 960 -15
400 960 -15
480 960 -15
560 960 -15
640 960 -15
720 960 -15
800 960 -15
880 960 -15
960 960 -15
1040 960 -15
1120 960 -15
1200 960 -15
1280 960 -15
1360 960 -15
0 1040 -15
80 1040 -15
160 1040 -15
240 1040 -15
320 1040 -15
400 1040 -15
480 1040 -15
560 1040 -15
640 1040 -15
720 1040 -15
800 1040 -15
880 1040 -15
960 1040 -15
1040 1040 -15
1120 1040 -15
1200 1040 -15
1280 1040 -15
1360 1040 -15
0 1120 -15
80 1120 -15
160 1120 -15
240 1120 -15
320 1120 -15
400 1120 -15
480 1120 -15
560 1120 -15
640 1120 -15
720 1120 -15
800 1120 -15
880 1120 -15
960 1120 -15
1040 1120 -15
1120 1120 -15
1200 1120 -15
1280 1120 -15
1360 1120 -15
0 1200 -15
80 1200 -15
160 1200 -15
240 1200 -15
320 1200 -15
400 1200 -15
480 1200 -15
560 1200 -15
640 1200 -15
720 1200 -15
800 1200 -15
880 1200 -15
960 1200 -15
1040 1200 -15
1120 1200 -15
1200 1200 -15
1280 1200 -15
1360 1200 -15
0 1280 -15
80 1280 -15
160 1280 -15
240 1280 -15
320 1280 -15
400 1280 -15
480 1280 -15
560 1280 -15
640 1280 -15
720 1280 -15
800 1280 -15
880 1280 -15
960 1280 -15
1040 1280 -15
1120 1280 -15
1200 1280 -15
1280 1280 -15
1360 1280 -15
0 1360 -15
80 1360 -15
160 1360 -15
240 1360 -15
320 1360 -15
400 1360 -15
480 1360 -15
560 1360 -15
640 1360 -15
720 1360 -15
800 1360 -15
880 1360 -15
960 1360 -15
1040 1360 -15
1120 1360 -15
1200 1360 -15
1280 1360 -15
1360 1360 -15
0 0 -30
80 0 -30
160 0 -30
240 0 -30
320 0 -30
400 0 -30
480 0 -30
560 0 -30
640 0 -30
720 0 -30
800 0 -30
880 0 -30
960 0 -30
1040 0 -30
1120 0 -30
1200 0 -30
1280 0 -30
1360 0 -30
0 80 -30
80 80 -30
160 80 -30
240 80 -30
320 80 -30
400 80 -30
480 80 -30
560 80 -30
640 80 -30
720 80 -30
800 80 -30
880 80 -30
960 80 -30
1040 80 -30
1120 80 -30
1200 80 -30
1280 80 -30
1360 80 -30
0 160 -30
80 160 -30
160 160 -30
240 160 -30
320 160 -30
400 160 -30
480 160 -30
560 160 -30
640 160 -30
720 160 -30
800 160 -30
880 160 -30
960 160 -30
1040 160 -30
1120 160 -30
1200 160 -30
1280 160 -30
1360 160 -30
0 240 -30
80 240 -30
160 240 -30
240 240 -30
320 240 -30
400 240 -30
480 240 -30
560 240 -30
640 240 -30
720 240 -30
800 240 -30
880 240 -30
960 240 -30
1040 240 -30
1120 240 -30
1200 240 -30
1280 240 -30
1360 240 -30
0 320 -30
80 320 -30
160 320 -30
240 320 -30
320 320 -30
400 320 -30
480 320 -30
560 320 -30
640 320 -30
720 320 -30
800 320 -30
880 320 -30
960 320 -30
1040 320 -30
1120 320 -30
1200 320 -30
1280 320 -30
1360 320 -30
0 400 -30
80 400 -30
160 400 -30
240 400 -30
320 400 -30
400 400 -30
480 400 -30
560 400 -30
640 400 -30
720 400 -30
800 400 -30
880 400 -30
960 400 -30
1040 400 -30
1120 400 -30
1200 400 -30
1280 400 -30
1360 400 -30
0 480 -30
80 480 -30
160 480 -30
240 480 -30
320 480 -30
400 480 -30
480 480 -30
560 480 -30
640 480 -30
720 480 -30
800 480 -30
880 480 -30
960 480 -30
1040 480 -30
1120 480 -30
1200 480 -30
1280 480 -30
1360 480 -30
0 560 -30
80 560 -30
160 560 -30
240 560 -30
320 560 -30
400 560 -30
480 560 -30
560 560 -30
640 560 -30
720 560 -30
800 560 -30
880 560 -30
960 560 -30
1040 560 -30
1120 560 -30
1200 560 -30
1280 560 -30
1360 560 -30
0 640 -30
80 640 -30
160 640 -30
240 640 -30
320 640 -30
400 640 -30
480 640 -30
560 640 -30
640 640 -30
720 640 -30
800 640 -30
880 640 -30
960 640 -30
1040 640 -30
1120 640 -30
1200 640 -30
1280 640 -30
1360 640 -30
0 720 -30
80 720 -30
160 720 -30
240 720 -30
320 720 -30
400 720 -30
480 720 -30
560 720 -30
640 720 -30
720 720 -30
800 720 -30
880 720 -30
960 720 -30
1040 720 -30
1120 720 -30
1200 720 -30
1280 720 -30
1360 720 -30
0 800 -30
80 800 -30
160 800 -30
240 800 -30
320 800 -30
400 800 -30
480 800 -30
560 800 -30
640 800 -30
720 800 -30
800 800 -30
880 800 -30
960 800 -30
1040 800 -30
1120 800 -30
[...]
POINT_DATA 972
SCALARS GLOBAL_ID int 1
LOOKUP_TABLE default
-1 
-1 
-1 
-1 
-1 
-1 
-1 
-1 
-1 
-1 
-1 
-1 
-1 
-1 
-1 
-1 
-1 
-1 
-1 
-1 
-1 
-1 
-1 
-1 
-1 
-1 
-1 
-1 
-1 
-1 
-1 
-1 
-1 
-1 
-1 
-1 
-1 
-1 
-1 
-1 
-1 
-1 
-1 
-1 
-1 
-1 
-1 
-1 
-1 
-1 
-1 
-1 
-1 
-1 
-1 
-1 
-1 
-1 
-1 
-1 
-1 
-1 
-1 
-1 
-1 
-1 
-1 
-1 
-1 
-1 
-1 
-1 
-1 
-1 
-1 
-1 
-1 
-1 
-1 
-1 
-1 
-1 
-1 
-1 
-1 
-1 
-1 
-1 
-1 
-1 
-1 
-1 
-1 
-1 
-1 
-1 
-1 
-1 
-1 
-1 
-1 
-1 
-1 
-1 
-1 
-1 
-1 
-1 
-1 
-1 
-1 
-1 
-1 
-1 
-1 
-1 
-1 
-1 
-1 
-1 
-1 
-1 
-1 
-1 
-1 
-1 
-1 
-1 
-1 
-1 
-1 
-1 
-1 
-1 
-1 
-1 
-1 
-1 
-1 
-1 
-1 
-1 
-1 
-1 
-1 
-1 
-1 
-1 
-1 
-1 
-1 
-1 
-1 
-1 
-1 
-1 
-1 
-1 
-1 
-1 
-1 
-1 
-1 
-1 
-1 
-1 
-1 
-1 
-1 
-1 
-1 
-1 
-1 
-1 
-1 
-1 
-1 
-1 
-1 
-1 
-1 
-1 
-1 
-1 
-1 
-1 
-1 
-1 
-1 
-1 
-1 
-1 
-1 
-1 
-1 
-1 
-1 
-1 
-1 
-1 
-1 
-1 
-1 
-1 
-1 
-1 
-1 
-1 
-1 
-1 
-1 
-1 
-1 
-1 
-1 
-1 
-1 
-1 
-1 
-1 
-1 
-1 
-1 
-1 
-1 
-1 
-1 
-1 
-1 
-1 
-1 
-1 
-1 
-1 
-1 
-1 
-1 
-1 
-1 
-1 
-1 
-1 
-1 
-1 
-1 
-1 
-1 
-1 
-1 
-1 
-1 
-1 
-1 
-1 
-1 
-1 
-1 
-1 
-1 
-1 
-1 
-1 
-1 
-1 
-1 
-1 
-1 
-1 
-1 
-1 
-1 
-1 
-1 
-1 
-1 
-1 
-1 
-1 
-1 
-1 
-1 
-1 
-1 
-1 
-1 
-1 
-1 
-1 
-1 
-1 
-1 
-1 
-1 
-1 
-1 
-1 
-1 
-1 
-1 
-1 
-1 
-1 
-1 
-1 
-1 
-1 
-1 
-1 
-1 
-1 
-1 
-1 
-1 
-1 
-1 
-1 
-1 
-1 
-1 
-1 
-1 
-1 
-1 
-1 
-1 
-1 
-1 
-1 
-1 
-1 
-1 
-1 
-1 
-1 
-1 
-1 
-1 
-1 
-1 
-1 
-1 
-1 
-1 
-1 
-1 
-1 
-1 
-1 
-1 
-1 
-1 
-1 
-1 
-1 
-1 
-1 
-1 
-1 
-1 
-1 
-1 
-1 
-1 
-1 
-1 
-1 
-1 
-1 
-1 
-1 
-1 
-1 
-1 
-1 
-1 
-1 
-1 
-1 
-1 
-1 
-1 
-1 
-1 
-1 
-1 
-1 
-1 
-1 
-1 
-1 
-1 
-1 
-1 
-1 
-1 
-1 
-1 
-1 
-1 
-1 
-1 
-1 
-1 
-1 
-1 
-1 
-1 
-1 
-1 
-1 
-1 
-1 
-1 
-1 
-1 
-1 
-1 
-1 
-1 
-1 
-1 
-1 
-1 
-1 
-1 
-1 
-1 
-1 
-1 
-1 
-1 
-1 
-1 
-1 
-1 
-1 
-1 
-1 
-1 
-1 
-1 
-1 
-1 
-1 
-1 
-1 
-1 
-1 
-1 
-1 
-1 
-1 
-1 
-1 
-1 
-1 
-1 
-1 
-1 
-1 
-1 
-1 
-1 
-1 
-1 
-1 
-1 
-1 
-1 
-1 
-1 
-1 
-1 
-1 
-1 
-1 
-1 
-1 
-1 
-1 
-1 
-1 
-1 
-1 
-1 
-1 
-1 
-1 
-1 
-1 
-1 
-1 
-1 
-1 
-1 
-1 
-1 
-1 
-1 
-1 
-1 
-1 
-1 
-1 
-1 
-1 
-1 
-1 
-1 
-1 
-1 
-1 
-1 
-1 
-1 
-1 
-1 
-1 
-1 
-1 
-1 
-1 
-1 
-1 
-1 
-1 
-1 
-1 
-1 
-1 
-1 
-1 
-1 
-1 
-1 
-1 
-1 
-1 
-1 
-1 
-1 
-1 
-1 
-1 
-1 
-1 
-1 
-1 
-1 
-1 
-1 
-1 
-1 
-1 
-1 
-1 
-1 
-1 
-1 
-1 
-1 
-1 
-1 
-1 
-1 
-1 
-1 
-1 
-1 
-1 
-1 
-1 
-1 
-1 
-1 
-1 
-1 
-1 
-1 
-1 
-1 
-1 
-1 
-1 
-1 
-1 
-1 
-1 
-1 
-1 
-1 
-1 
-1 
-1 
-1 
-1 
-1 
-1 
-1 
-1 
-1 
-1 
-1 
-1 
-1 
-1 
-1 
-1 
-1 
-1 
-1 
-1 
-1 
-1 
-1 
-1 
-1 
-1 
-1 
-1 
-1 
-1 
-1 
-1 
-1 
-1 
-1 
-1 
-1 
-1 
-1 
-1 
-1 
-1 
-1 
-1 
-1 
-1 
-1 
-1 
-1 
-1 
-1 
-1 
-1 
-1 
-1 
-1 
-1 
-1 
-1 
-1 
-1 
-1 
-1 
-1 
-1 
-1 
-1 
-1 
-1 
-1 
-1 
-1 
-1 
-1 
-1 
-1 
-1 
-1 
-1 
-1 
-1 
-1 
-1 
-1 
-1 
-1 
-1 
-1 
-1 
-1 
-1 
-1 
-1 
-1 
-1 
-1 
-1 
-1 
-1 
-1 
-1 
-1 
-1 
-1 
-1 
-1 
-1 
-1 
-1 
-1 
-1 
-1 
-1 
-1 
-1 
-1 
-1 
-1 
-1 
-1 
-1 
-1 
-1 
-1 
-1 
-1 
-1 
-1 
-1 
-1 
-1 
-1 
-1 
-1 
-1 
-1 
-1 
-1 
-1 
-1 
-1 
-1 
-1 
-1 
-1 
-1 
-1 
-1 
-1 
-1 
-1 
-1 
-1 
-1 
-1 
-1 
-1 
-1 
-1 
-1 
-1 
-1 
-1 
-1 
-1 
-1 
-1 
-1 
-1 
-1 
-1 
-1 
-1 
-1 
-1 
-1 
-1 
-1 
-1 
-1 
-1 
-1 
-1 
-1 
-1 
-1 
-1 
-1 
-1 
-1 
-1 
-1 
-1 
-1 
-1 
-1 
-1 
-1 
-1 
-1 
-1 
-1 
-1 
-1 
-1 
-1 
-1 
-1 
-1 
-1 
-1 
-1 
-1 
-1 
-1 
-1 
-1 
-1 
-1 
-1 
-1 
-1 
-1 
-1 
-1 
-1 
-1 
-1 
-1 
-1 
-1 
-1 
-1 
-1 
-1 
-1 
-1 
-1 
-1 
-1 
-1 
-1 
-1 
-1 
-1 
-1 
-1 
-1 
-1 
-1 
-1 
-1 
-1 
-1 
-1 
-1 
-1 
-1 
-1 
-1 
-1 
-1 
-1 
-1 
-1 
-1 
-1 
-1 
-1 
-1 
-1 
-1 
-1 
-1 
-1 
-1 
-1 
-1 
-1 
-1 
-1 
-1 
-1 
-1 
-1 
-1 
-1 
-1 
-1 
-1 
-1 
-1 
-1 
-1 
-1 
-1 
-1 
-1 
-1 
-1 
-1 
-1 
-1 
-1 
-1 
-1 
-1 
-1 
-1 
-1 
-1 
-1 
-1 
-1 
-1 
-1 
-1 
-1 
-1 
-1 
-1 
-1 
-1 
-1 
-1 
-1 
-1 
-1 
-1 
-1 
-1 
-1 
-1 
-1 
-1 
-1 
-1 
-1 
-1 
-1 
-1 
-1 
-1 
-1 
-1 
-1 
-1 
-1 
-1 
-1 
-1 
-1 
-1 
-1 
-1 
-1 
-1 
-1 
-1 
-1 
-1 
-1 
-1 
-1 
-1 
-1 
-1 
-1 
-1 
-1 
-1 
-1 
-1 
-1 
-1 
-1 
-1 
-1 
-1 
-1 
CELL_DATA 578
SCALARS GLOBAL_ID int 1
LOOKUP_TABLE default
-1 
-1 
-1 
-1 
-1 
-1 
-1 
-1 
-1 
-1 
-1 
-1 
-1 
-1 
-1 
-1 
-1 
-1 
-1 
-1 
-1 
-1 
-1 
-1 
-1 
-1 
-1 
-1 
-1 
-1 
-1 
-1 
-1 
-1 
-1 
-1 
-1 
-1 
-1 
-1 
-1 
-1 
-1 
-1 
-1 
-1 
-1 
-1 
-1 
-1 
-1 
-1 
-1 
-1 
-1 
-1 
-1 
-1 
-1 
-1 
-1 
-1 
-1 
-1 
-1 
-1 
-1 
-1 
-1 
-1 
-1 
-1 
-1 
-1 
-1 
-1 
-1 
-1 
-1 
-1 
-1 
-1 
-1 
-1 
-1 
-1 
-1 
-1 
-1 
-1 
-1 
-1 
-1 
-1 
-1 
-1 
-1 
-1 
-1 
-1 
-1 
-1 
-1 
-1 
-1 
-1 
-1 
-1 
-1 
-1 
-1 
-1 
-1 
-1 
-1 
-1 
-1 
-1 
-1 
-1 
-1 
-1 
-1 
-1 
-1 
-1 
-1 
-1 
-1 
-1 
-1 
-1 
-1 
-1 
-1 
-1 
-1 
-1 
-1 
-1 
-1 
-1 
-1 
-1 
-1 
-1 
-1 
-1 
-1 
-1 
-1 
-1 
-1 
-1 
-1 
-1 
-1 
-1 
-1 
-1 
-1 
-1 
-1 
-1 
-1 
-1 
-1 
-1 
-1 
-1 
-1 
-1 
-1 
-1 
-1 
-1 
-1 
-1 
-1 
-1 
-1 
-1 
-1 
-1 
-1 
-1 
-1 
-1 
-1 
-1 
-1 
-1 
-1 
-1 
-1 
-1 
-1 
-1 
-1 
-1 
-1 
-1 
-1 
-1 
-1 
-1 
-1 
-1 
-1 
-1 
-1 
-1 
-1 
-1 
-1 
-1 
-1 
-1 
-1 
-1 
-1 
-1 
-1 
-1 
-1 
-1 
-1 
-1 
-1 
-1 
-1 
-1 
-1 
-1 
-1 
-1 
-1 
-1 
-1 
-1 
-1 
-1 
-1 
-1 
-1 
-1 
-1 
-1 
-1 
-1 
-1 
-1 
-1 
-1 
-1 
-1 
-1 
-1 
-1 
-1 
-1 
-1 
-1 
-1 
-1 
-1 
-1 
-1 
-1 
-1 
-1 
-1 
-1 
-1 
-1 
-1 
-1 
-1 
-1 
-1 
-1 
-1 
-1 
-1 
-1 
-1 
-1 
-1 
-1 
-1 
-1 
-1 
-1 
-1 
-1 
-1 
-1 
-1 
-1 
-1 
-1 
-1 
-1 
-1 
-1 
-1 
-1 
-1 
-1 
-1 
-1 
-1 
-1 
-1 
-1 
-1 
-1 
-1 
-1 
-1 
-1 
-1 
-1 
-1 
-1 
-1 
-1 
-1 
-1 
-1 
-1 
-1 
-1 
-1 
-1 
-1 
-1 
-1 
-1 
-1 
-1 
-1 
-1 
-1 
-1 
-1 
-1 
-1 
-1 
-1 
-1 
-1 
-1 
-1 
-1 
-1 
-1 
-1 
-1 
-1 
-1 
-1 
-1 
-1 
-1 
-1 
-1 
-1 
-1 
-1 
-1 
-1 
-1 
-1 
-1 
-1 
-1 
-1 
-1 
-1 
-1 
-1 
-1 
-1 
-1 
-1 
-1 
-1 
-1 
-1 
-1 
-1 
-1 
-1 
-1 
-1 
-1 
-1 
-1 
-1 
-1 
-1 
-1 
-1 
-1 
-1 
-1 
-1 
-1 
-1 
-1 
-1 
-1 
-1 
-1 
-1 
-1 
-1 
-1 
-1 
-1 
-1 
-1 
-1 
-1 
-1 
-1 
-1 
-1 
-1 
-1 
-1 
-1 
-1 
-1 
-1 
-1 
-1 
-1 
-1 
-1 
-1 
-1 
-1 
-1 
-1 
-1 
-1 
-1 
-1 
-1 
-1 
-1 
-1 
-1 
-1 
-1 
-1 
-1 
-1 
-1 
-1 
-1 
-1 
-1 
-1 
-1 
-1 
-1 
-1 
-1 
-1 
-1 
-1 
-1 
-1 
-1 
-1 
-1 
-1 
-1 
-1 
-1 
-1 
-1 
-1 
-1 
-1 
-1 
-1 
-1 
-1 
-1 
-1 
-1 
-1 
-1 
-1 
-1 
-1 
-1 
-1 
-1 
-1 
-1 
-1 
-1 
-1 
-1 
-1 
-1 
-1 
-1 
-1 
-1 
-1 
-1 
-1 
-1 
-1 
-1 
-1 
-1 
-1 
-1 
-1 
-1 
-1 
-1 
-1 
-1 
-1 
-1 
-1 
-1 
-1 
-1 
-1 
-1 
-1 
-1 
-1 
-1 
-1 
-1 
-1 
-1 
-1 
-1 
-1 
-1 
-1 
-1 
-1 
-1 
-1 
-1 
-1 
-1 
-1 
-1 
-1 
-1 
-1 
-1 
-1 
-1 
-1 
-1 
-1 
-1 
-1 
-1 
-1 
-1 
-1 
-1 
-1 
SCALARS P double 1
LOOKUP_TABLE default
5043 
5042 
5012 
5018 
4995 
5002 
4984 
4990 
4975 
4981 
4968 
4974 
4962 
4968 
4957 
4963 
4952 
4958 
4948 
4954 
4944 
4950 
4941 
4947 
4940 
4944 
4938 
4942 
4937 
4941 
4937 
4941 
4937 
4941 
5012 
5018 
5001 
5008 
4990 
4997 
4981 
4987 
4973 
4980 
4967 
4973 
4961 
4967 
4956 
4962 
4951 
4958 
4947 
4954 
4943 
4950 
4941 
4946 
4939 
4943 
4938 
4942 
4937 
4941 
4937 
4941 
4936 
4940 
4995 
5002 
4990 
4997 
4983 
4990 
4977 
4983 
4970 
4977 
4965 
4971 
4959 
4966 
4955 
4961 
4950 
4957 
4946 
4952 
4942 
4949 
4940 
4945 
4939 
4943 
4937 
4941 
4937 
4941 
4936 
4940 
4936 
4940 
4984 
4990 
4981 
4987 
4977 
4983 
4972 
4978 
4967 
4973 
4962 
4968 
4957 
4963 
4953 
4959 
4948 
4955 
4945 
4951 
4941 
4947 
4939 
4944 
4938 
4942 
4936 
4941 
4936 
4940 
4935 
4939 
4935 
4939 
4975 
4981 
4973 
4980 
4970 
4977 
4967 
4973 
4963 
4969 
4958 
4965 
4954 
4961 
4950 
4956 
4946 
4953 
4943 
4949 
4939 
4946 
4938 
4943 
4936 
4940 
4935 
4940 
4935 
4939 
4934 
4938 
4934 
4938 
4968 
4974 
4967 
4973 
4965 
4971 
4962 
4968 
4958 
4965 
4955 
4961 
4951 
4957 
4947 
4954 
4944 
4950 
4940 
4947 
4938 
4944 
4937 
4941 
4935 
4939 
4934 
4938 
4934 
4938 
4933 
4937 
4933 
4937 
4962 
4968 
4961 
4967 
4959 
4966 
4957 
4963 
4954 
4961 
4951 
4957 
4948 
4954 
4944 
4951 
4941 
4947 
4938 
4944 
4937 
4941 
4935 
4939 
4934 
4938 
4933 
4937 
4932 
4936 
4932 
4936 
4931 
4935 
4957 
4963 
4956 
4962 
4955 
4961 
4953 
4959 
4950 
4957 
4947 
4954 
4944 
4951 
4941 
4948 
4938 
4945 
4936 
4942 
4935 
4939 
4933 
4937 
4932 
4936 
4931 
4935 
4930 
4935 
4930 
4934 
4930 
4934 
4952 
4958 
4952 
4958 
4950 
4957 
4949 
4955 
4946 
4953 
4944 
4950 
4941 
4947 
4938 
4945 
4936 
4942 
4935 
4939 
4933 
4937 
4932 
4936 
4930 
4935 
4929 
4933 
4929 
4933 
4928 
4932 
4928 
4932 
4948 
4954 
4947 
4954 
4946 
4953 
4945 
4951 
4943 
4949 
4940 
4947 
4938 
4944 
4936 
4942 
4935 
4939 
4933 
4937 
4931 
4935 
4930 
4934 
4929 
4933 
4927 
4932 
4927 
4931 
4926 
4930 
4925 
4929 
4944 
4950 
4944 
4950 
4942 
4949 
4941 
4947 
4939 
4946 
4938 
4944 
4936 
4941 
4935 
4939 
4933 
4937 
4931 
4935 
4930 
4934 
4928 
4932 
4927 
4931 
4925 
4929 
4924 
4928 
4923 
4927 
4923 
4927 
4941 
4947 
4941 
4947 
4940 
4946 
4939 
4944 
4938 
4943 
4937 
4941 
4935 
4939 
4933 
4937 
4932 
4936 
4930 
4934 
4928 
4932 
4926 
4930 
4925 
4929 
4923 
4927 
4921 
4926 
4920 
4924 
4920 
4924 
4940 
4944 
4939 
4944 
4939 
4943 
4938 
4942 
4936 
4940 
4935 
4939 
4934 
4938 
4932 
4936 
4930 
4934 
4929 
4933 
4927 
4931 
4925 
4929 
4923 
4927 
4920 
4924 
4918 
4923 
4917 
4921 
4916 
4920 
4938 
4942 
4938 
4942 
4937 
4941 
4936 
4940 
4935 
4939 
4934 
4938 
4933 
4937 
4931 
4935 
4929 
4933 
4927 
4932 
4925 
4929 
4923 
4927 
4920 
4924 
4918 
4922 
4915 
4919 
4913 
4917 
4911 
4915 
4937 
4941 
4937 
4941 
4936 
4941 
4936 
4940 
4935 
4939 
4934 
4938 
4932 
4936 
4930 
4934 
4929 
4933 
4926 
4931 
4924 
4928 
4921 
4926 
4918 
4923 
4915 
4919 
4911 
4915 
4908 
4912 
4905 
4909 
4937 
4941 
4937 
4941 
4936 
4940 
4935 
4939 
4934 
4938 
4933 
4937 
4932 
4936 
4930 
4934 
4928 
4932 
4926 
4930 
4923 
4927 
4920 
4924 
4917 
4921 
4913 
4917 
4908 
4912 
4902 
4906 
4896 
4900 
4937 
4941 
4936 
4940 
4936 
4940 
4935 
4939 
4934 
4938 
4933 
4937 
4931 
4935 
4930 
4934 
4928 
4932 
4925 
4929 
4923 
4927 
4920 
4924 
4916 
4920 
4911 
4915 
4905 
4909 
4896 
4900 
4883 
4883 
SCALARS So double 1
LOOKUP_TABLE default
0.296 
0.2977 
0.299 
0.2987 
0.2994 
0.299 
0.2999 
0.2991 
0.3015 
0.2993 
0.3106 
0.2994 
0.3334 
0.2995 
0.368 
0.2997 
0.4059 
0.2999 
0.4755 
0.3003 
0.6348 
0.3044 
0.8432 
0.358 
0.8784 
0.6323 
0.8801 
0.8566 
0.8802 
0.8786 
0.8802 
0.8795 
0.8802 
0.8795 
0.299 
0.2987 
0.2993 
0.299 
0.2996 
0.2991 
0.3001 
0.2992 
0.3031 
0.2993 
0.3154 
0.2994 
0.3412 
0.2996 
0.3761 
0.2997 
0.413 
0.2999 
0.4886 
0.3004 
0.6619 
0.3059 
0.8533 
0.3726 
0.8789 
0.6696 
0.8801 
0.8626 
0.8802 
0.8788 
0.8802 
0.8795 
0.8802 
0.8795 
0.2994 
0.299 
0.2996 
0.2991 
0.2999 
0.2992 
0.301 
0.2993 
0.3074 
0.2994 
0.3249 
0.2995 
0.3538 
0.2996 
0.3874 
0.2998 
0.4245 
0.2999 
0.5109 
0.3008 
0.7079 
0.3097 
0.8649 
0.4031 
0.8794 
0.7286 
0.8802 
0.8695 
0.8802 
0.8791 
0.8802 
0.8795 
0.8802 
0.8795 
0.2999 
0.2991 
0.3001 
0.2992 
0.301 
0.2993 
0.3053 
0.2993 
0.3177 
0.2994 
0.3406 
0.2995 
0.3705 
0.2997 
0.4004 
0.2998 
0.4431 
0.3 
0.5485 
0.3016 
0.7721 
0.3192 
0.8733 
0.4648 
0.8798 
0.7941 
0.8802 
0.8749 
0.8802 
0.8793 
0.8802 
0.8795 
0.8802 
0.8795 
0.3015 
0.2993 
0.3031 
0.2993 
0.3074 
0.2994 
0.3177 
0.2994 
0.3363 
0.2995 
0.3618 
0.2996 
0.3891 
0.2998 
0.4168 
0.2999 
0.473 
0.3002 
0.6107 
0.3041 
0.8312 
0.344 
0.8778 
0.5749 
0.8801 
0.8442 
0.8802 
0.8778 
0.8802 
0.8794 
0.8802 
0.8795 
0.8802 
0.8795 
0.3106 
0.2994 
0.3155 
0.2994 
0.3249 
0.2995 
0.3406 
0.2995 
0.3619 
0.2996 
0.3853 
0.2997 
0.4073 
0.2999 
0.4449 
0.3 
0.5209 
0.301 
0.7158 
0.3121 
0.8661 
0.4014 
0.8794 
0.7198 
0.8802 
0.8682 
0.8802 
0.879 
0.8802 
0.8795 
0.8802 
0.8795 
0.8802 
0.8795 
0.3335 
0.2995 
0.3413 
0.2996 
0.3538 
0.2996 
0.3705 
0.2997 
0.3892 
0.2998 
0.4073 
0.2999 
0.4369 
0.3 
0.4931 
0.3005 
0.6121 
0.3041 
0.8286 
0.3413 
0.8774 
0.5363 
0.88 
0.829 
0.8802 
0.8767 
0.8802 
0.8794 
0.8802 
0.8795 
0.8802 
0.8795 
0.8802 
0.8795 
0.3681 
0.2997 
0.3762 
0.2997 
0.3875 
0.2998 
0.4005 
0.2998 
0.4169 
0.2999 
0.4449 
0.3 
0.4931 
0.3005 
0.5851 
0.3031 
0.7774 
0.3196 
0.8724 
0.4297 
0.8797 
0.7426 
0.8802 
0.8689 
0.8802 
0.8789 
0.8802 
0.8794 
0.8802 
0.8795 
0.8802 
0.8795 
0.8802 
0.8795 
0.406 
0.2999 
0.413 
0.2999 
0.4245 
0.2999 
0.4431 
0.3 
0.4727 
0.3002 
0.5199 
0.3009 
0.6091 
0.304 
0.7748 
0.3194 
0.8679 
0.3925 
0.8793 
0.6553 
0.8802 
0.8544 
0.8802 
0.8778 
0.8802 
0.8794 
0.8802 
0.8795 
0.8802 
0.8795 
0.8802 
0.8795 
0.8802 
0.8795 
0.4678 
0.3001 
0.4802 
0.3002 
0.501 
0.3004 
0.5353 
0.301 
0.5935 
0.3028 
0.6949 
0.3087 
0.8203 
0.3322 
0.8713 
0.411 
0.8793 
0.6311 
0.8801 
0.843 
0.8802 
0.8763 
0.8802 
0.8792 
0.8802 
0.8795 
0.8802 
0.8795 
0.8802 
0.8795 
0.8802 
0.8795 
0.8802 
0.8795 
0.6091 
0.3026 
0.6342 
0.3036 
0.6785 
0.3061 
0.7455 
0.3126 
0.8169 
0.3307 
0.8615 
0.3784 
0.8767 
0.4927 
0.8796 
0.7067 
0.8802 
0.8472 
0.8802 
0.8759 
0.8802 
0.8791 
0.8802 
0.8794 
0.8802 
0.8795 
0.8802 
0.8795 
0.8802 
0.8795 
0.8802 
0.8795 
0.8802 
0.8795 
0.8291 
0.3391 
0.8423 
0.3505 
0.8583 
0.3753 
0.8705 
0.4226 
0.8769 
0.5189 
0.8792 
0.6693 
0.88 
0.8068 
0.8802 
0.8644 
0.8802 
0.8771 
0.8802 
0.8792 
0.8802 
0.8794 
0.8802 
0.8795 
0.8802 
0.8795 
0.8802 
0.8795 
0.8802 
0.8795 
0.8802 
0.8795 
0.8802 
0.8795 
0.8777 
0.5731 
0.8784 
0.6112 
0.8791 
0.6762 
0.8796 
0.7557 
0.88 
0.8245 
0.8802 
0.8621 
0.8802 
0.8751 
0.8802 
0.8786 
0.8802 
0.8793 
0.8802 
0.8794 
0.8802 
0.8795 
0.8802 
0.8795 
0.8802 
0.8795 
0.8802 
0.8795 
0.8802 
0.8795 
0.8802 
0.8795 
0.8802 
0.8795 
0.88 
0.8433 
0.8801 
0.8526 
0.8802 
0.8637 
0.8802 
0.8719 
0.8802 
0.8768 
0.8802 
0.8787 
0.8802 
0.8793 
0.8802 
0.8794 
0.8802 
0.8795 
0.8802 
0.8795 
0.8802 
0.8795 
0.8802 
0.8795 
0.8802 
0.8795 
0.8802 
0.8795 
0.8802 
0.8795 
0.8802 
0.8795 
0.8802 
0.8795 
0.8802 
0.8779 
0.8802 
0.8784 
0.8802 
0.8789 
0.8802 
0.8792 
0.8802 
0.8794 
0.8802 
0.8794 
0.8802 
0.8795 
0.8802 
0.8795 
0.8802 
0.8795 
0.8802 
0.8795 
0.8802 
0.8795 
0.8802 
0.8795 
0.8802 
0.8795 
0.8802 
0.8795 
0.8802 
0.8795 
0.8802 
0.8795 
0.8802 
0.8795 
0.8802 
0.8794 
0.8802 
0.8794 
0.8802 
0.8794 
0.8802 
0.8795 
0.8802 
0.8795 
0.8802 
0.8795 
0.8802 
0.8795 
0.8802 
0.8795 
0.8802 
0.8795 
0.8802 
0.8795 
0.8802 
0.8795 
0.8802 
0.8795 
0.8802 
0.8795 
0.8802 
0.8795 
0.8802 
0.8795 
0.8802 
0.8795 
0.8802 
0.8795 
0.8802 
0.8795 
0.8802 
0.8795 
0.8802 
0.8795 
0.8802 
0.8795 
0.8802 
0.8795 
0.8802 
0.8795 
0.8802 
0.8795 
0.8802 
0.8795 
0.8802 
0.8795 
0.8802 
0.8795 
0.8802 
0.8795 
0.8802 
0.8795 
0.8802 
0.8795 
0.8802 
0.8795 
0.8802 
0.8795 
0.8802 
0.8795 
0.8802 
0.8797 
SCALARS Sw double 1
LOOKUP_TABLE default
0.704 
0.7023 
0.701 
0.7013 
0.7006 
0.701 
0.7001 
0.7009 
0.6985 
0.7007 
0.6894 
0.7006 
0.6666 
0.7005 
0.632 
0.7003 
0.5941 
0.7001 
0.5245 
0.6997 
0.3652 
0.6956 
0.1568 
0.642 
0.1216 
0.3677 
0.1199 
0.1434 
0.1198 
0.1214 
0.1198 
0.1205 
0.1198 
0.1205 
0.701 
0.7013 
0.7007 
0.701 
0.7004 
0.7009 
0.6999 
0.7008 
0.6969 
0.7007 
0.6846 
0.7006 
0.6588 
0.7004 
0.6239 
0.7003 
0.587 
0.7001 
0.5114 
0.6996 
0.3381 
0.6941 
0.1467 
0.6274 
0.1211 
0.3304 
0.1199 
0.1374 
0.1198 
0.1212 
0.1198 
0.1205 
0.1198 
0.1205 
0.7006 
0.701 
0.7004 
0.7009 
0.7001 
0.7008 
0.699 
0.7007 
0.6926 
0.7006 
0.6751 
0.7005 
0.6462 
0.7004 
0.6126 
0.7002 
0.5755 
0.7001 
0.4891 
0.6992 
0.2921 
0.6903 
0.1351 
0.5969 
0.1206 
0.2714 
0.1198 
0.1305 
0.1198 
0.1209 
0.1198 
0.1205 
0.1198 
0.1205 
0.7001 
0.7009 
0.6999 
0.7008 
0.699 
0.7007 
0.6947 
0.7007 
0.6823 
0.7006 
0.6594 
0.7005 
0.6295 
0.7003 
0.5996 
0.7002 
0.5569 
0.7 
0.4515 
0.6984 
0.2279 
0.6808 
0.1267 
0.5352 
0.1202 
0.2059 
0.1198 
0.1251 
0.1198 
0.1207 
0.1198 
0.1205 
0.1198 
0.1205 
0.6985 
0.7007 
0.6969 
0.7007 
0.6926 
0.7006 
0.6823 
0.7006 
0.6637 
0.7005 
0.6382 
0.7004 
0.6109 
0.7002 
0.5832 
0.7001 
0.527 
0.6998 
0.3893 
0.6959 
0.1688 
0.656 
0.1222 
0.4251 
0.1199 
0.1558 
0.1198 
0.1222 
0.1198 
0.1206 
0.1198 
0.1205 
0.1198 
0.1205 
0.6894 
0.7006 
0.6845 
0.7006 
0.6751 
0.7005 
0.6594 
0.7005 
0.6381 
0.7004 
0.6147 
0.7003 
0.5927 
0.7001 
0.5551 
0.7 
0.4791 
0.699 
0.2842 
0.6879 
0.1339 
0.5986 
0.1206 
0.2802 
0.1198 
0.1318 
0.1198 
0.121 
0.1198 
0.1205 
0.1198 
0.1205 
0.1198 
0.1205 
0.6665 
0.7005 
0.6587 
0.7004 
0.6462 
0.7004 
0.6295 
0.7003 
0.6108 
0.7002 
0.5927 
0.7001 
0.5631 
0.7 
0.5069 
0.6995 
0.3879 
0.6959 
0.1714 
0.6587 
0.1226 
0.4637 
0.12 
0.171 
0.1198 
0.1233 
0.1198 
0.1206 
0.1198 
0.1205 
0.1198 
0.1205 
0.1198 
0.1205 
0.6319 
0.7003 
0.6238 
0.7003 
0.6125 
0.7002 
0.5995 
0.7002 
0.5831 
0.7001 
0.5551 
0.7 
0.5069 
0.6995 
0.4149 
0.6969 
0.2226 
0.6804 
0.1276 
0.5703 
0.1203 
0.2574 
0.1198 
0.1311 
0.1198 
0.1211 
0.1198 
0.1206 
0.1198 
0.1205 
0.1198 
0.1205 
0.1198 
0.1205 
0.594 
0.7001 
0.587 
0.7001 
0.5755 
0.7001 
0.5569 
0.7 
0.5273 
0.6998 
0.4801 
0.6991 
0.3909 
0.696 
0.2252 
0.6806 
0.1321 
0.6075 
0.1207 
0.3447 
0.1198 
0.1456 
0.1198 
0.1222 
0.1198 
0.1206 
0.1198 
0.1205 
0.1198 
0.1205 
0.1198 
0.1205 
0.1198 
0.1205 
0.5322 
0.6999 
0.5198 
0.6998 
0.499 
0.6996 
0.4647 
0.699 
0.4065 
0.6972 
0.3051 
0.6913 
0.1797 
0.6678 
0.1287 
0.589 
0.1207 
0.3689 
0.1199 
0.157 
0.1198 
0.1237 
0.1198 
0.1208 
0.1198 
0.1205 
0.1198 
0.1205 
0.1198 
0.1205 
0.1198 
0.1205 
0.1198 
0.1205 
0.3909 
0.6974 
0.3658 
0.6964 
0.3215 
0.6939 
0.2545 
0.6874 
0.1831 
0.6693 
0.1385 
0.6216 
0.1233 
0.5073 
0.1204 
0.2933 
0.1198 
0.1528 
0.1198 
0.1241 
0.1198 
0.1209 
0.1198 
0.1206 
0.1198 
0.1205 
0.1198 
0.1205 
0.1198 
0.1205 
0.1198 
0.1205 
0.1198 
0.1205 
0.1709 
0.6609 
0.1577 
0.6495 
0.1417 
0.6247 
0.1295 
0.5774 
0.1231 
0.4811 
0.1208 
0.3307 
0.12 
0.1932 
0.1198 
0.1356 
0.1198 
0.1229 
0.1198 
0.1208 
0.1198 
0.1206 
0.1198 
0.1205 
0.1198 
0.1205 
0.1198 
0.1205 
0.1198 
0.1205 
0.1198 
0.1205 
0.1198 
0.1205 
0.1223 
0.4269 
0.1216 
0.3888 
0.1209 
0.3238 
0.1204 
0.2443 
0.12 
0.1755 
0.1198 
0.1379 
0.1198 
0.1249 
0.1198 
0.1214 
0.1198 
0.1207 
0.1198 
0.1206 
0.1198 
0.1205 
0.1198 
0.1205 
0.1198 
0.1205 
0.1198 
0.1205 
0.1198 
0.1205 
0.1198 
0.1205 
0.1198 
0.1205 
0.12 
0.1567 
0.1199 
0.1474 
0.1198 
0.1363 
0.1198 
0.1281 
0.1198 
0.1232 
0.1198 
0.1213 
0.1198 
0.1207 
0.1198 
0.1206 
0.1198 
0.1205 
0.1198 
0.1205 
0.1198 
0.1205 
0.1198 
0.1205 
0.1198 
0.1205 
0.1198 
0.1205 
0.1198 
0.1205 
0.1198 
0.1205 
0.1198 
0.1205 
0.1198 
0.1221 
0.1198 
0.1216 
0.1198 
0.1211 
0.1198 
0.1208 
0.1198 
0.1206 
0.1198 
0.1206 
0.1198 
0.1205 
0.1198 
0.1205 
0.1198 
0.1205 
0.1198 
0.1205 
0.1198 
0.1205 
0.1198 
0.1205 
0.1198 
0.1205 
0.1198 
0.1205 
0.1198 
0.1205 
0.1198 
0.1205 
0.1198 
0.1205 
0.1198 
0.1206 
0.1198 
0.1206 
0.1198 
0.1206 
0.1198 
0.1205 
0.1198 
0.1205 
0.1198 
0.1205 
0.1198 
0.1205 
0.1198 
0.1205 
0.1198 
0.1205 
0.1198 
0.1205 
0.1198 
0.1205 
0.1198 
0.1205 
0.1198 
0.1205 
0.1198 
0.1205 
0.1198 
0.1205 
0.1198 
0.1205 
0.1198 
0.1205 
0.1198 
0.1205 
0.1198 
0.1205 
0.1198 
0.1205 
0.1198 
0.1205 
0.1198 
0.1205 
0.1198 
0.1205 
0.1198 
0.1205 
0.1198 
0.1205 
0.1198 
0.1205 
0.1198 
0.1205 
0.1198 
0.1205 
0.1198 
0.1205 
0.1198 
0.1205 
0.1198 
0.1205 
0.1198 
0.1205 
0.1198 
0.1205 
0.1198 
0.1203 
SCALARS Sg double 1
LOOKUP_TABLE default
0 
0 
0 
0 
0 
0 
0 
0 
0 
0 
0 
0 
0 
0 
0 
0 
0 
0 
0 
0 
0 
0 
0 
0 
0 
0 
0 
0 
0 
0 
0 
0 
0 
0 
0 
0 
0 
0 
0 
0 
0 
0 
0 
0 
0 
0 
0 
0 
0 
0 
0 
0 
0 
0 
0 
0 
0 
0 
0 
0 
0 
0 
0 
0 
0 
0 
0 
0 
0 
0 
0 
0 
0 
0 
0 
0 
0 
0 
0 
0 
0 
0 
0 
0 
0 
0 
0 
0 
0 
0 
0 
0 
0 
0 
0 
0 
0 
0 
0 
0 
0 
0 
0 
0 
0 
0 
0 
0 
0 
0 
0 
0 
0 
0 
0 
0 
0 
0 
0 
0 
0 
0 
0 
0 
0 
0 
0 
0 
0 
0 
0 
0 
0 
0 
0 
0 
0 
0 
0 
0 
0 
0 
0 
0 
0 
0 
0 
0 
0 
0 
0 
0 
0 
0 
0 
0 
0 
0 
0 
0 
0 
0 
0 
0 
0 
0 
0 
0 
0 
0 
0 
0 
0 
0 
0 
0 
0 
0 
0 
0 
0 
0 
0 
0 
0 
0 
0 
0 
0 
0 
0 
0 
0 
0 
0 
0 
0 
0 
0 
0 
0 
0 
0 
0 
0 
0 
0 
0 
0 
0 
0 
0 
0 
0 
0 
0 
0 
0 
0 
0 
0 
0 
0 
0 
0 
0 
0 
0 
0 
0 
0 
0 
0 
0 
0 
0 
0 
0 
0 
0 
0 
0 
0 
0 
0 
0 
0 
0 
0 
0 
0 
0 
0 
0 
0 
0 
0 
0 
0 
0 
0 
0 
0 
0 
0 
0 
0 
0 
0 
0 
0 
0 
0 
0 
0 
0 
0 
0 
0 
0 
0 
0 
0 
0 
0 
0 
0 
0 
0 
0 
0 
0 
0 
0 
0 
0 
0 
0 