# vtk DataFile Version 3.0
MOAB 5.4.1
ASCII
DATASET UNSTRUCTURED_GRID
POINTS 200 double
0 0 0
160 0 0
320 0 0
480 0 0
640 0 0
720 0 0
880 0 0
1040 0 0
1200 0 0
1360 0 0
0 160 0
160 160 0
320 160 0
480 160 0
640 160 0
720 160 0
880 160 0
1040 160 0
1200 160 0
1360 160 0
0 320 0
160 320 0
320 320 0
480 320 0
640 320 0
720 320 0
880 320 0
1040 320 0
1200 320 0
1360 320 0
0 480 0
160 480 0
320 480 0
480 480 0
640 480 0
720 480 0
880 480 0
1040 480 0
1200 480 0
1360 480 0
0 640 0
160 640 0
320 640 0
480 640 0
640 640 0
720 640 0
880 640 0
1040 640 0
1200 640 0
1360 640 0
0 720 0
160 720 0
320 720 0
480 720 0
640 720 0
720 720 0
880 720 0
1040 720 0
1200 720 0
1360 720 0
0 880 0
160 880 0
320 880 0
480 880 0
640 880 0
720 880 0
880 880 0
1040 880 0
1200 880 0
1360 880 0
0 1040 0
160 1040 0
320 1040 0
480 1040 0
640 1040 0
720 1040 0
880 1040 0
1040 1040 0
1200 1040 0
1360 1040 0
0 1200 0
160 1200 0
320 1200 0
480 1200 0
640 1200 0
720 1200 0
880 1200 0
1040 1200 0
1200 1200 0
1360 1200 0
0 1360 0
160 1360 0
320 1360 0
480 1360 0
640 1360 0
720 1360 0
880 1360 0
1040 1360 0
1200 1360 0
1360 1360 0
0 0 -30
160 0 -30
320 0 -30
480 0 -30
640 0 -30
720 0 -30
880 0 -30
1040 0 -30
1200 0 -30
1360 0 -30
0 160 -30
160 160 -30
320 160 -30
480 160 -30
640 160 -30
720 160 -30
880 160 -30
1040 160 -30
1200 160 -30
1360 160 -30
0 320 -30
160 320 -30
320 320 -30
480 320 -30
640 320 -30
720 320 -30
880 320 -30
1040 320 -30
1200 320 -30
1360 320 -30
0 480 -30
160 480 -30
320 480 -30
480 480 -30
640 480 -30
720 480 -30
880 480 -30
1040 480 -30
1200 480 -30
1360 480 -30
0 640 -30
160 640 -30
320 640 -30
480 640 -30
640 640 -30
720 640 -30
880 640 -30
1040 640 -30
1200 640 -30
1360 640 -30
0 720 -30
160 720 -30
320 720 -30
480 720 -30
640 720 -30
720 720 -30
880 720 -30
1040 720 -30
1200 720 -30
1360 720 -30
0 880 -30
160 880 -30
320 880 -30
480 880 -30
640 880 -30
720 880 -30
880 880 -30
1040 880 -30
1200 880 -30
1360 880 -30
0 1040 -30
160 1040 -30
320 1040 -30
480 1040 -30
640 1040 -30
720 1040 -30
880 1040 -30
1040 1040 -30
1200 1040 -30
1360 1040 -30
0 1200 -30
160 1200 -30
320 1200 -30
480 1200 -30
640 1200 -30
720 1200 -30
880 1200 -30
1040 1200 -30
1200 1200 -30
1360 1200 -30
0 1360 -30
160 1360 -30
320 1360 -30
480 1360 -30
640 1360 -30
720 1360 -30
880 1360 -30
1040 1360 -30
1200 1360 -30
1360 1360 -30
CELLS 81 729
8 0 1 11 10 100 101 111 110
8 10 11 21 20 110 111 121 120
8 20 21 31 30 120 121 131 130
8 30 31 41 40 130 131 141 140
8 40 41 51 50 140 141 151 150
8 50 51 61 60 150 151 161 160
8 60 61 71 70 160 161 171 170
8 70 71 81 80 170 171 181 180
8 80 81 91 90 180 181 191 190
8 1 2 12 11 101 102 112 111
8 11 12 22 21 111 112 122 121
8 21 22 32 31 121 122 132 131
8 31 32 42 41 131 132 142 141
8 41 42 52 51 141 142 152 151
8 51 52 62 61 151 152 162 161
8 61 62 72 71 161 162 172 171
8 71 72 82 81 171 172 182 181
8 81 82 92 91 181 182 192 191
8 2 3 13 12 102 103 113 112
8 12 13 23 22 112 113 123 122
8 22 23 33 32 122 123 133 132
8 32 33 43 42 132 133 143 142
8 42 43 53 52 142 143 153 152
8 52 53 63 62 152 153 163 162
8 62 63 73 72 162 163 173 172
8 72 73 83 82 172 173 183 182
8 82 83 93 92 182 183 193 192
8 3 4 14 13 103 104 114 113
8 13 14 24 23 113 114 124 123
8 23 24 34 33 123 124 134 133
8 33 34 44 43 133 134 144 143
8 43 44 54 53 143 144 154 153
8 53 54 64 63 153 154 164 163
8 63 64 74 73 163 164 174 173
8 73 74 84 83 173 174 184 183
8 83 84 94 93 183 184 194 193
8 4 5 15 14 104 105 115 114
8 14 15 25 24 114 115 125 124
8 24 25 35 34 124 125 135 134
8 34 35 45 44 134 135 145 144
8 44 45 55 54 144 145 155 154
8 54 55 65 64 154 155 165 164
8 64 65 75 74 164 165 175 174
8 74 75 85 84 174 175 185 184
8 84 85 95 94 184 185 195 194
8 5 6 16 15 105 106 116 115
8 15 16 26 25 115 116 126 125
8 25 26 36 35 125 126 136 135
8 35 36 46 45 135 136 146 145
8 45 46 56 55 145 146 156 155
8 55 56 66 65 155 156 166 165
8 65 66 76 75 165 166 176 175
8 75 76 86 85 175 176 186 185
8 85 86 96 95 185 186 196 195
8 6 7 17 16 106 107 117 116
8 16 17 27 26 116 117 127 126
8 26 27 37 36 126 127 137 136
8 36 37 47 46 136 137 147 146
8 46 47 57 56 146 147 157 156
8 56 57 67 66 156 157 167 166
8 66 67 77 76 166 167 177 176
8 76 77 87 86 176 177 187 186
8 86 87 97 96 186 187 197 196
8 7 8 18 17 107 108 118 117
8 17 18 28 27 117 118 128 127
8 27 28 38 37 127 128 138 137
8 37 38 48 47 137 138 148 147
8 47 48 58 57 147 148 158 157
8 57 58 68 67 157 158 168 167
8 67 68 78 77 167 168 178 177
8 77 78 88 87 177 178 188 187
8 87 88 98 97 187 188 198 197
8 8 9 19 18 108 109 119 118
8 18 19 29 28 118 119 129 128
8 28 29 39 38 128 129 139 138
8 38 39 49 48 138 139 149 148
8 48 49 59 58 148 149 159 158
8 58 59 69 68 158 159 169 168
8 68 69 79 78 168 169 179 178
8 78 79 89 88 178 179 189 188
8 88 89 99 98 188 189 199 198
CELL_TYPES 81
12
12
12
12
12
12
12
12
12
12
12
12
12
12
12
12
12
12
12
12
12
12
12
12
12
12
12
12
12
12
12
12
12
12
12
12
12
12
12
12
12
12
12
12
12
12
12
12
12
12
12
12
12
12
12
12
12
12
12
12
12
12
12
12
12
12
12
12
12
12
12
12
12
12
12
12
12
12
12
12
12
POINT_DATA 200
SCALARS GLOBAL_ID int 1
LOOKUP_TABLE default
-1 
-1 
-1 
-1 
-1 
-1 
-1 
-1 
-1 
-1 
-1 
-1 
-1 
-1 
-1 
-1 
-1 
-1 
-1 
-1 
-1 
-1 
-1 
-1 
-1 
-1 
-1 
-1 
-1 
-1 
-1 
-1 
-1 
-1 
-1 
-1 
-1 
-1 
-1 
-1 
-1 
-1 
-1 
-1 
-1 
-1 
-1 
-1 
-1 
-1 
-1 
-1 
-1 
-1 
-1 
-1 
-1 
-1 
-1 
-1 
-1 
-1 
-1 
-1 
-1 
-1 
-1 
-1 
-1 
-1 
-1 
-1 
-1 
-1 
-1 
-1 
-1 
-1 
-1 
-1 
-1 
-1 
-1 
-1 
-1 
-1 
-1 
-1 
-1 
-1 
-1 
-1 
-1 
-1 
-1 
-1 
-1 
-1 
-1 
-1 
-1 
-1 
-1 
-1 
-1 
-1 
-1 
-1 
-1 
-1 
-1 
-1 
-1 
-1 
-1 
-1 
-1 
-1 
-1 
-1 
-1 
-1 
-1 
-1 
-1 
-1 
-1 
-1 
-1 
-1 
-1 
-1 
-1 
-1 
-1 
-1 
-1 
-1 
-1 
-1 
-1 
-1 
-1 
-1 
-1 
-1 
-1 
-1 
-1 
-1 
-1 
-1 
-1 
-1 
-1 
-1 
-1 
-1 
-1 
-1 
-1 
-1 
-1 
-1 
-1 
-1 
-1 
-1 
-1 
-1 
-1 
-1 
-1 
-1 
-1 
-1 
-1 
-1 
-1 
-1 
-1 
-1 
-1 
-1 
-1 
-1 
-1 
-1 
-1 
-1 
-1 
-1 
-1 
-1 
-1 
-1 
-1 
-1 
-1 
-1 
CELL_DATA 81
SCALARS GLOBAL_ID int 1
LOOKUP_TABLE default
-1 
-1 
-1 
-1 
-1 
-1 
-1 
-1 
-1 
-1 
-1 
-1 
-1 
-1 
-1 
-1 
-1 
-1 
-1 
-1 
-1 
-1 
-1 
-1 
-1 
-1 
-1 
-1 
-1 
-1 
-1 
-1 
-1 
-1 
-1 
-1 
-1 
-1 
-1 
-1 
-1 
-1 
-1 
-1 
-1 
-1 
-1 
-1 
-1 
-1 
-1 
-1 
-1 
-1 
-1 
-1 
-1 
-1 
-1 
-1 
-1 
-1 
-1 
-1 
-1 
-1 
-1 
-1 
-1 
-1 
-1 
-1 
-1 
-1 
-1 
-1 
-1 
-1 
-1 
-1 
-1 
SCALARS P double 1
LOOKUP_TABLE default
3840 
3756 
3705 
3668 
3648 
3631 
3613 
3600 
3593 
3756 
3722 
3688 
3658 
3640 
3623 
3606 
3593 
3585 
3705 
3688 
3665 
3641 
3625 
3610 
3592 
3578 
3570 
3668 
3657 
3641 
3622 
3607 
3592 
3572 
3557 
3547 
3647 
3639 
3625 
3607 
3591 
3575 
3553 
3535 
3523 
3630 
3623 
3610 
3591 
3575 
3557 
3533 
3511 
3495 
3612 
3605 
3591 
3572 
3553 
3532 
3502 
3470 
3444 
3599 
3591 
3577 
3555 
3534 
3510 
3470 
3421 
3373 
3591 
3583 
3568 
3545 
3521 
3493 
3443 
3373 
3266 
SCALARS So double 1
LOOKUP_TABLE default
0.3013 
0.3036 
0.3139 
0.3261 
0.3203 
0.3452 
0.3846 
0.4397 
0.6067 
0.3036 
0.3098 
0.3198 
0.3194 
0.3268 
0.3542 
0.3915 
0.4455 
0.6151 
0.3138 
0.3197 
0.3287 
0.3295 
0.3388 
0.3666 
0.3991 
0.4522 
0.6237 
0.326 
0.3193 
0.3294 
0.3461 
0.356 
0.381 
0.4067 
0.4594 
0.6315 
0.3202 
0.3266 
0.3386 
0.3559 
0.3652 
0.3875 
0.4099 
0.4612 
0.6301 
0.3473 
0.3564 
0.369 
0.3834 
0.3897 
0.4032 
0.4231 
0.4726 
0.6406 
0.3889 
0.3956 
0.403 
0.4114 
0.415 
0.4265 
0.4457 
0.4891 
0.6488 
0.4485 
0.4551 
0.463 
0.4717 
0.4739 
0.4831 
0.4959 
0.5262 
0.6615 
0.6272 
0.6374 
0.6483 
0.6594 
0.6597 
0.6678 
0.6711 
0.6746 
0.7276 
SCALARS Sw double 1
LOOKUP_TABLE default
0.6987 
0.6964 
0.6846 
0.6709 
0.6797 
0.6548 
0.6154 
0.5603 
0.3933 
0.6964 
0.6893 
0.678 
0.6806 
0.6732 
0.6458 
0.6085 
0.5545 
0.3849 
0.6846 
0.678 
0.6681 
0.6705 
0.6612 
0.6334 
0.6009 
0.5478 
0.3763 
0.671 
0.6807 
0.6706 
0.6539 
0.644 
0.619 
0.5933 
0.5406 
0.3685 
0.6798 
0.6734 
0.6614 
0.6441 
0.6348 
0.6125 
0.5901 
0.5388 
0.3699 
0.6527 
0.6436 
0.631 
0.6166 
0.6103 
0.5968 
0.5769 
0.5274 
0.3594 
0.6111 
0.6044 
0.597 
0.5886 
0.585 
0.5735 
0.5543 
0.5109 
0.3512 
0.5515 
0.5449 
0.537 
0.5283 
0.5261 
0.5169 
0.5041 
0.4734 
0.3372 
0.3728 
0.3626 
0.3517 
0.3406 
0.3403 
0.3322 
0.3288 
0.3241 
0.2691 
SCALARS Sg double 1
LOOKUP_TABLE default
0 
0 
0.001565 
0.002987 
0 
0 
0 
0 
0 
0 
0.0008261 
0.002246 
0 
0 
0 
0 
0 
0 
0.001558 
0.002241 
0.003104 
0 
0 
0 
0 
0 
0 
0.002975 
0 
0 
0 
0 
0 
0 
0 
0 
0 
0 
0 
0 
0 
0 
0 
0 
0 
0 
0 
0 
0 
0 
0 
0 
0 
0 
0 
0 
0 
0 
0 
0 
0 
0 
2.562e-05 
0 
0 
0 
0 
0 
0 
0 
0.0004262 
0.001292 
0 
0 
0 
0 
0 
0 
3.742e-05 
0.001297 
0.003288 
