# vtk DataFile Version 3.0
MOAB 5.4.1
ASCII
DATASET UNSTRUCTURED_GRID
POINTS 200 double
0 0 0
160 0 0
320 0 0
480 0 0
640 0 0
720 0 0
880 0 0
1040 0 0
1200 0 0
1360 0 0
0 160 0
160 160 0
320 160 0
480 160 0
640 160 0
720 160 0
880 160 0
1040 160 0
1200 160 0
1360 160 0
0 320 0
160 320 0
320 320 0
480 320 0
640 320 0
720 320 0
880 320 0
1040 320 0
1200 320 0
1360 320 0
0 480 0
160 480 0
320 480 0
480 480 0
640 480 0
720 480 0
880 480 0
1040 480 0
1200 480 0
1360 480 0
0 640 0
160 640 0
320 640 0
480 640 0
640 640 0
720 640 0
880 640 0
1040 640 0
1200 640 0
1360 640 0
0 720 0
160 720 0
320 720 0
480 720 0
640 720 0
720 720 0
880 720 0
1040 720 0
1200 720 0
1360 720 0
0 880 0
160 880 0
320 880 0
480 880 0
640 880 0
720 880 0
880 880 0
1040 880 0
1200 880 0
1360 880 0
0 1040 0
160 1040 0
320 1040 0
480 1040 0
640 1040 0
720 1040 0
880 1040 0
1040 1040 0
1200 1040 0
1360 1040 0
0 1200 0
160 1200 0
320 1200 0
480 1200 0
640 1200 0
720 1200 0
880 1200 0
1040 1200 0
1200 1200 0
1360 1200 0
0 1360 0
160 1360 0
320 1360 0
480 1360 0
640 1360 0
720 1360 0
880 1360 0
1040 1360 0
1200 1360 0
1360 1360 0
0 0 -30
160 0 -30
320 0 -30
480 0 -30
640 0 -30
720 0 -30
880 0 -30
1040 0 -30
1200 0 -30
1360 0 -30
0 160 -30
160 160 -30
320 160 -30
480 160 -30
640 160 -30
720 160 -30
880 160 -30
1040 160 -30
1200 160 -30
1360 160 -30
0 320 -30
160 320 -30
320 320 -30
480 320 -30
640 320 -30
720 320 -30
880 320 -30
1040 320 -30
1200 320 -30
1360 320 -30
0 480 -30
160 480 -30
320 480 -30
480 480 -30
640 480 -30
720 480 -30
880 480 -30
1040 480 -30
1200 480 -30
1360 480 -30
0 640 -30
160 640 -30
320 640 -30
480 640 -30
640 640 -30
720 640 -30
880 640 -30
1040 640 -30
1200 640 -30
1360 640 -30
0 720 -30
160 720 -30
320 720 -30
480 720 -30
640 720 -30
720 720 -30
880 720 -30
1040 720 -30
1200 720 -30
1360 720 -30
0 880 -30
160 880 -30
320 880 -30
480 880 -30
640 880 -30
720 880 -30
880 880 -30
1040 880 -30
1200 880 -30
1360 880 -30
0 1040 -30
160 1040 -30
320 1040 -30
480 1040 -30
640 1040 -30
720 1040 -30
880 1040 -30
1040 1040 -30
1200 1040 -30
1360 1040 -30
0 1200 -30
160 1200 -30
320 1200 -30
480 1200 -30
640 1200 -30
720 1200 -30
880 1200 -30
1040 1200 -30
1200 1200 -30
1360 1200 -30
0 1360 -30
160 1360 -30
320 1360 -30
480 1360 -30
640 1360 -30
720 1360 -30
880 1360 -30
1040 1360 -30
1200 1360 -30
1360 1360 -30
CELLS 81 729
8 0 1 11 10 100 101 111 110
8 10 11 21 20 110 111 121 120
8 20 21 31 30 120 121 131 130
8 30 31 41 40 130 131 141 140
8 40 41 51 50 140 141 151 150
8 50 51 61 60 150 151 161 160
8 60 61 71 70 160 161 171 170
8 70 71 81 80 170 171 181 180
8 80 81 91 90 180 181 191 190
8 1 2 12 11 101 102 112 111
8 11 12 22 21 111 112 122 121
8 21 22 32 31 121 122 132 131
8 31 32 42 41 131 132 142 141
8 41 42 52 51 141 142 152 151
8 51 52 62 61 151 152 162 161
8 61 62 72 71 161 162 172 171
8 71 72 82 81 171 172 182 181
8 81 82 92 91 181 182 192 191
8 2 3 13 12 102 103 113 112
8 12 13 23 22 112 113 123 122
8 22 23 33 32 122 123 133 132
8 32 33 43 42 132 133 143 142
8 42 43 53 52 142 143 153 152
8 52 53 63 62 152 153 163 162
8 62 63 73 72 162 163 173 172
8 72 73 83 82 172 173 183 182
8 82 83 93 92 182 183 193 192
8 3 4 14 13 103 104 114 113
8 13 14 24 23 113 114 124 123
8 23 24 34 33 123 124 134 133
8 33 34 44 43 133 134 144 143
8 43 44 54 53 143 144 154 153
8 53 54 64 63 153 154 164 163
8 63 64 74 73 163 164 174 173
8 73 74 84 83 173 174 184 183
8 83 84 94 93 183 184 194 193
8 4 5 15 14 104 105 115 114
8 14 15 25 24 114 115 125 124
8 24 25 35 34 124 125 135 134
8 34 35 45 44 134 135 145 144
8 44 45 55 54 144 145 155 154
8 54 55 65 64 154 155 165 164
8 64 65 75 74 164 165 175 174
8 74 75 85 84 174 175 185 184
8 84 85 95 94 184 185 195 194
8 5 6 16 15 105 106 116 115
8 15 16 26 25 115 116 126 125
8 25 26 36 35 125 126 136 135
8 35 36 46 45 135 136 146 145
8 45 46 56 55 145 146 156 155
8 55 56 66 65 155 156 166 165
8 65 66 76 75 165 166 176 175
8 75 76 86 85 175 176 186 185
8 85 86 96 95 185 186 196 195
8 6 7 17 16 106 107 117 116
8 16 17 27 26 116 117 127 126
8 26 27 37 36 126 127 137 136
8 36 37 47 46 136 137 147 146
8 46 47 57 56 146 147 157 156
8 56 57 67 66 156 157 167 166
8 66 67 77 76 166 167 177 176
8 76 77 87 86 176 177 187 186
8 86 87 97 96 186 187 197 196
8 7 8 18 17 107 108 118 117
8 17 18 28 27 117 118 128 127
8 27 28 38 37 127 128 138 137
8 37 38 48 47 137 138 148 147
8 47 48 58 57 147 148 158 157
8 57 58 68 67 157 158 168 167
8 67 68 78 77 167 168 178 177
8 77 78 88 87 177 178 188 187
8 87 88 98 97 187 188 198 197
8 8 9 19 18 108 109 119 118
8 18 19 29 28 118 119 129 128
8 28 29 39 38 128 129 139 138
8 38 39 49 48 138 139 149 148
8 48 49 59 58 148 149 159 158
8 58 59 69 68 158 159 169 168
8 68 69 79 78 168 169 179 178
8 78 79 89 88 178 179 189 188
8 88 89 99 98 188 189 199 198
CELL_TYPES 81
12
12
12
12
12
12
12
12
12
12
12
12
12
12
12
12
12
12
12
12
12
12
12
12
12
12
12
12
12
12
12
12
12
12
12
12
12
12
12
12
12
12
12
12
12
12
12
12
12
12
12
12
12
12
12
12
12
12
12
12
12
12
12
12
12
12
12
12
12
12
12
12
12
12
12
12
12
12
12
12
12
POINT_DATA 200
SCALARS GLOBAL_ID int 1
LOOKUP_TABLE default
-1 
-1 
-1 
-1 
-1 
-1 
-1 
-1 
-1 
-1 
-1 
-1 
-1 
-1 
-1 
-1 
-1 
-1 
-1 
-1 
-1 
-1 
-1 
-1 
-1 
-1 
-1 
-1 
-1 
-1 
-1 
-1 
-1 
-1 
-1 
-1 
-1 
-1 
-1 
-1 
-1 
-1 
-1 
-1 
-1 
-1 
-1 
-1 
-1 
-1 
-1 
-1 
-1 
-1 
-1 
-1 
-1 
-1 
-1 
-1 
-1 
-1 
-1 
-1 
-1 
-1 
-1 
-1 
-1 
-1 
-1 
-1 
-1 
-1 
-1 
-1 
-1 
-1 
-1 
-1 
-1 
-1 
-1 
-1 
-1 
-1 
-1 
-1 
-1 
-1 
-1 
-1 
-1 
-1 
-1 
-1 
-1 
-1 
-1 
-1 
-1 
-1 
-1 
-1 
-1 
-1 
-1 
-1 
-1 
-1 
-1 
-1 
-1 
-1 
-1 
-1 
-1 
-1 
-1 
-1 
-1 
-1 
-1 
-1 
-1 
-1 
-1 
-1 
-1 
-1 
-1 
-1 
-1 
-1 
-1 
-1 
-1 
-1 
-1 
-1 
-1 
-1 
-1 
-1 
-1 
-1 
-1 
-1 
-1 
-1 
-1 
-1 
-1 
-1 
-1 
-1 
-1 
-1 
-1 
-1 
-1 
-1 
-1 
-1 
-1 
-1 
-1 
-1 
-1 
-1 
-1 
-1 
-1 
-1 
-1 
-1 
-1 
-1 
-1 
-1 
-1 
-1 
-1 
-1 
-1 
-1 
-1 
-1 
-1 
-1 
-1 
-1 
-1 
-1 
-1 
-1 
-1 
-1 
-1 
-1 
CELL_DATA 81
SCALARS GLOBAL_ID int 1
LOOKUP_TABLE default
-1 
-1 
-1 
-1 
-1 
-1 
-1 
-1 
-1 
-1 
-1 
-1 
-1 
-1 
-1 
-1 
-1 
-1 
-1 
-1 
-1 
-1 
-1 
-1 
-1 
-1 
-1 
-1 
-1 
-1 
-1 
-1 
-1 
-1 
-1 
-1 
-1 
-1 
-1 
-1 
-1 
-1 
-1 
-1 
-1 
-1 
-1 
-1 
-1 
-1 
-1 
-1 
-1 
-1 
-1 
-1 
-1 
-1 
-1 
-1 
-1 
-1 
-1 
-1 
-1 
-1 
-1 
-1 
-1 
-1 
-1 
-1 
-1 
-1 
-1 
-1 
-1 
-1 
-1 
-1 
-1 
SCALARS P double 1
LOOKUP_TABLE default
2783 
2699 
2648 
2611 
2591 
2574 
2557 
2545 
2539 
2699 
2665 
2631 
2600 
2583 
2567 
2550 
2538 
2531 
2648 
2631 
2608 
2584 
2568 
2554 
2537 
2524 
2517 
2611 
2600 
2584 
2565 
2550 
2536 
2518 
2504 
2495 
2591 
2583 
2568 
2550 
2535 
2520 
2500 
2482 
2472 
2574 
2567 
2554 
2536 
2520 
2503 
2479 
2458 
2444 
2557 
2550 
2537 
2518 
2500 
2479 
2448 
2415 
2390 
2545 
2538 
2524 
2504 
2482 
2458 
2415 
2362 
2307 
2539 
2531 
2517 
2495 
2472 
2444 
2390 
2307 
2156 
SCALARS So double 1
LOOKUP_TABLE default
0.3012 
0.3037 
0.3145 
0.3262 
0.3191 
0.3366 
0.3693 
0.414 
0.5414 
0.3037 
0.3104 
0.3205 
0.3182 
0.3231 
0.3427 
0.375 
0.4171 
0.5443 
0.3144 
0.3205 
0.3286 
0.3249 
0.3309 
0.3518 
0.3819 
0.4201 
0.5456 
0.3261 
0.3181 
0.3249 
0.3358 
0.3427 
0.3632 
0.3888 
0.4219 
0.5424 
0.3191 
0.323 
0.3308 
0.3427 
0.3495 
0.3686 
0.391 
0.421 
0.5372 
0.3383 
0.3446 
0.3539 
0.3655 
0.3709 
0.3845 
0.3979 
0.4214 
0.5259 
0.3733 
0.379 
0.3858 
0.3925 
0.3945 
0.3993 
0.4046 
0.4218 
0.5063 
0.4204 
0.4238 
0.4271 
0.4292 
0.4282 
0.4272 
0.4254 
0.4309 
0.4856 
0.5586 
0.5623 
0.5644 
0.562 
0.5567 
0.543 
0.5196 
0.4937 
0.4952 
SCALARS Sw double 1
LOOKUP_TABLE default
0.6988 
0.6963 
0.684 
0.6708 
0.6809 
0.6634 
0.6307 
0.586 
0.4586 
0.6963 
0.6888 
0.6772 
0.6818 
0.6769 
0.6573 
0.625 
0.5829 
0.4557 
0.684 
0.6772 
0.6683 
0.6751 
0.6691 
0.6482 
0.6181 
0.5799 
0.4544 
0.6709 
0.6819 
0.6751 
0.6642 
0.6573 
0.6368 
0.6112 
0.5777 
0.4564 
0.6809 
0.677 
0.6692 
0.6573 
0.6505 
0.6314 
0.6085 
0.5774 
0.4599 
0.6617 
0.6554 
0.6461 
0.6345 
0.6291 
0.6152 
0.6005 
0.5756 
0.4692 
0.6267 
0.621 
0.6142 
0.6075 
0.605 
0.5991 
0.592 
0.5727 
0.4849 
0.5796 
0.5762 
0.5729 
0.5704 
0.5702 
0.5698 
0.569 
0.5593 
0.4969 
0.4414 
0.4377 
0.4356 
0.4367 
0.4403 
0.4519 
0.4713 
0.4884 
0.4844 
SCALARS Sg double 1
LOOKUP_TABLE default
0 
0 
0.001565 
0.002987 
0 
0 
0 
0 
0 
0 
0.0008261 
0.002246 
0 
0 
0 
0 
0 
0 
0.001558 
0.002241 
0.003104 
0 
0 
0 
0 
0 
0 
0.002975 
0 
0 
0 
0 
0 
0 
0.0004385 
0.001234 
0 
0 
0 
0 
0 
0 
0.0004841 
0.001597 
0.002923 
0 
0 
0 
0 
0 
0.0002624 
0.001579 
0.002984 
0.004859 
0 
0 
0 
0 
0.0005007 
0.001592 
0.003375 
0.005524 
0.008849 
0 
0 
0 
0.0004552 
0.001635 
0.003034 
0.005581 
0.009755 
0.01744 
0 
0 
0 
0.001288 
0.003041 
0.005036 
0.009145 
0.01783 
0.02041 
