# vtk DataFile Version 3.0
MOAB 5.4.1
ASCII
DATASET UNSTRUCTURED_GRID
POINTS 200 double
0 0 0
160 0 0
320 0 0
480 0 0
640 0 0
720 0 0
880 0 0
1040 0 0
1200 0 0
1360 0 0
0 160 0
160 160 0
320 160 0
480 160 0
640 160 0
720 160 0
880 160 0
1040 160 0
1200 160 0
1360 160 0
0 320 0
160 320 0
320 320 0
480 320 0
640 320 0
720 320 0
880 320 0
1040 320 0
1200 320 0
1360 320 0
0 480 0
160 480 0
320 480 0
480 480 0
640 480 0
720 480 0
880 480 0
1040 480 0
1200 480 0
1360 480 0
0 640 0
160 640 0
320 640 0
480 640 0
640 640 0
720 640 0
880 640 0
1040 640 0
1200 640 0
1360 640 0
0 720 0
160 720 0
320 720 0
480 720 0
640 720 0
720 720 0
880 720 0
1040 720 0
1200 720 0
1360 720 0
0 880 0
160 880 0
320 880 0
480 880 0
640 880 0
720 880 0
880 880 0
1040 880 0
1200 880 0
1360 880 0
0 1040 0
160 1040 0
320 1040 0
480 1040 0
640 1040 0
720 1040 0
880 1040 0
1040 1040 0
1200 1040 0
1360 1040 0
0 1200 0
160 1200 0
320 1200 0
480 1200 0
640 1200 0
720 1200 0
880 1200 0
1040 1200 0
1200 1200 0
1360 1200 0
0 1360 0
160 1360 0
320 1360 0
480 1360 0
640 1360 0
720 1360 0
880 1360 0
1040 1360 0
1200 1360 0
1360 1360 0
0 0 -30
160 0 -30
320 0 -30
480 0 -30
640 0 -30
720 0 -30
880 0 -30
1040 0 -30
1200 0 -30
1360 0 -30
0 160 -30
160 160 -30
320 160 -30
480 160 -30
640 160 -30
720 160 -30
880 160 -30
1040 160 -30
1200 160 -30
1360 160 -30
0 320 -30
160 320 -30
320 320 -30
480 320 -30
640 320 -30
720 320 -30
880 320 -30
1040 320 -30
1200 320 -30
1360 320 -30
0 480 -30
160 480 -30
320 480 -30
480 480 -30
640 480 -30
720 480 -30
880 480 -30
1040 480 -30
1200 480 -30
1360 480 -30
0 640 -30
160 640 -30
320 640 -30
480 640 -30
640 640 -30
720 640 -30
880 640 -30
1040 640 -30
1200 640 -30
1360 640 -30
0 720 -30
160 720 -30
320 720 -30
480 720 -30
640 720 -30
720 720 -30
880 720 -30
1040 720 -30
1200 720 -30
1360 720 -30
0 880 -30
160 880 -30
320 880 -30
480 880 -30
640 880 -30
720 880 -30
880 880 -30
1040 880 -30
1200 880 -30
1360 880 -30
0 1040 -30
160 1040 -30
320 1040 -30
480 1040 -30
640 1040 -30
720 1040 -30
880 1040 -30
1040 1040 -30
1200 1040 -30
1360 1040 -30
0 1200 -30
160 1200 -30
320 1200 -30
480 1200 -30
640 1200 -30
720 1200 -30
880 1200 -30
1040 1200 -30
1200 1200 -30
1360 1200 -30
0 1360 -30
160 1360 -30
320 1360 -30
480 1360 -30
640 1360 -30
720 1360 -30
880 1360 -30
1040 1360 -30
1200 1360 -30
1360 1360 -30
CELLS 81 729
8 0 1 11 10 100 101 111 110
8 10 11 21 20 110 111 121 120
8 20 21 31 30 120 121 131 130
8 30 31 41 40 130 131 141 140
8 40 41 51 50 140 141 151 150
8 50 51 61 60 150 151 161 160
8 60 61 71 70 160 161 171 170
8 70 71 81 80 170 171 181 180
8 80 81 91 90 180 181 191 190
8 1 2 12 11 101 102 112 111
8 11 12 22 21 111 112 122 121
8 21 22 32 31 121 122 132 131
8 31 32 42 41 131 132 142 141
8 41 42 52 51 141 142 152 151
8 51 52 62 61 151 152 162 161
8 61 62 72 71 161 162 172 171
8 71 72 82 81 171 172 182 181
8 81 82 92 91 181 182 192 191
8 2 3 13 12 102 103 113 112
8 12 13 23 22 112 113 123 122
8 22 23 33 32 122 123 133 132
8 32 33 43 42 132 133 143 142
8 42 43 53 52 142 143 153 152
8 52 53 63 62 152 153 163 162
8 62 63 73 72 162 163 173 172
8 72 73 83 82 172 173 183 182
8 82 83 93 92 182 183 193 192
8 3 4 14 13 103 104 114 113
8 13 14 24 23 113 114 124 123
8 23 24 34 33 123 124 134 133
8 33 34 44 43 133 134 144 143
8 43 44 54 53 143 144 154 153
8 53 54 64 63 153 154 164 163
8 63 64 74 73 163 164 174 173
8 73 74 84 83 173 174 184 183
8 83 84 94 93 183 184 194 193
8 4 5 15 14 104 105 115 114
8 14 15 25 24 114 115 125 124
8 24 25 35 34 124 125 135 134
8 34 35 45 44 134 135 145 144
8 44 45 55 54 144 145 155 154
8 54 55 65 64 154 155 165 164
8 64 65 75 74 164 165 175 174
8 74 75 85 84 174 175 185 184
8 84 85 95 94 184 185 195 194
8 5 6 16 15 105 106 116 115
8 15 16 26 25 115 116 126 125
8 25 26 36 35 125 126 136 135
8 35 36 46 45 135 136 146 145
8 45 46 56 55 145 146 156 155
8 55 56 66 65 155 156 166 165
8 65 66 76 75 165 166 176 175
8 75 76 86 85 175 176 186 185
8 85 86 96 95 185 186 196 195
8 6 7 17 16 106 107 117 116
8 16 17 27 26 116 117 127 126
8 26 27 37 36 126 127 137 136
8 36 37 47 46 136 137 147 146
8 46 47 57 56 146 147 157 156
8 56 57 67 66 156 157 167 166
8 66 67 77 76 166 167 177 176
8 76 77 87 86 176 177 187 186
8 86 87 97 96 186 187 197 196
8 7 8 18 17 107 108 118 117
8 17 18 28 27 117 118 128 127
8 27 28 38 37 127 128 138 137
8 37 38 48 47 137 138 148 147
8 47 48 58 57 147 148 158 157
8 57 58 68 67 157 158 168 167
8 67 68 78 77 167 168 178 177
8 77 78 88 87 177 178 188 187
8 87 88 98 97 187 188 198 197
8 8 9 19 18 108 109 119 118
8 18 19 29 28 118 119 129 128
8 28 29 39 38 128 129 139 138
8 38 39 49 48 138 139 149 148
8 48 49 59 58 148 149 159 158
8 58 59 69 68 158 159 169 168
8 68 69 79 78 168 169 179 178
8 78 79 89 88 178 179 189 188
8 88 89 99 98 188 189 199 198
CELL_TYPES 81
12
12
12
12
12
12
12
12
12
12
12
12
12
12
12
12
12
12
12
12
12
12
12
12
12
12
12
12
12
12
12
12
12
12
12
12
12
12
12
12
12
12
12
12
12
12
12
12
12
12
12
12
12
12
12
12
12
12
12
12
12
12
12
12
12
12
12
12
12
12
12
12
12
12
12
12
12
12
12
12
12
POINT_DATA 200
SCALARS GLOBAL_ID int 1
LOOKUP_TABLE default
-1 
-1 
-1 
-1 
-1 
-1 
-1 
-1 
-1 
-1 
-1 
-1 
-1 
-1 
-1 
-1 
-1 
-1 
-1 
-1 
-1 
-1 
-1 
-1 
-1 
-1 
-1 
-1 
-1 
-1 
-1 
-1 
-1 
-1 
-1 
-1 
-1 
-1 
-1 
-1 
-1 
-1 
-1 
-1 
-1 
-1 
-1 
-1 
-1 
-1 
-1 
-1 
-1 
-1 
-1 
-1 
-1 
-1 
-1 
-1 
-1 
-1 
-1 
-1 
-1 
-1 
-1 
-1 
-1 
-1 
-1 
-1 
-1 
-1 
-1 
-1 
-1 
-1 
-1 
-1 
-1 
-1 
-1 
-1 
-1 
-1 
-1 
-1 
-1 
-1 
-1 
-1 
-1 
-1 
-1 
-1 
-1 
-1 
-1 
-1 
-1 
-1 
-1 
-1 
-1 
-1 
-1 
-1 
-1 
-1 
-1 
-1 
-1 
-1 
-1 
-1 
-1 
-1 
-1 
-1 
-1 
-1 
-1 
-1 
-1 
-1 
-1 
-1 
-1 
-1 
-1 
-1 
-1 
-1 
-1 
-1 
-1 
-1 
-1 
-1 
-1 
-1 
-1 
-1 
-1 
-1 
-1 
-1 
-1 
-1 
-1 
-1 
-1 
-1 
-1 
-1 
-1 
-1 
-1 
-1 
-1 
-1 
-1 
-1 
-1 
-1 
-1 
-1 
-1 
-1 
-1 
-1 
-1 
-1 
-1 
-1 
-1 
-1 
-1 
-1 
-1 
-1 
-1 
-1 
-1 
-1 
-1 
-1 
-1 
-1 
-1 
-1 
-1 
-1 
-1 
-1 
-1 
-1 
-1 
-1 
CELL_DATA 81
SCALARS GLOBAL_ID int 1
LOOKUP_TABLE default
-1 
-1 
-1 
-1 
-1 
-1 
-1 
-1 
-1 
-1 
-1 
-1 
-1 
-1 
-1 
-1 
-1 
-1 
-1 
-1 
-1 
-1 
-1 
-1 
-1 
-1 
-1 
-1 
-1 
-1 
-1 
-1 
-1 
-1 
-1 
-1 
-1 
-1 
-1 
-1 
-1 
-1 
-1 
-1 
-1 
-1 
-1 
-1 
-1 
-1 
-1 
-1 
-1 
-1 
-1 
-1 
-1 
-1 
-1 
-1 
-1 
-1 
-1 
-1 
-1 
-1 
-1 
-1 
-1 
-1 
-1 
-1 
-1 
-1 
-1 
-1 
-1 
-1 
-1 
-1 
-1 
SCALARS id int 1
LOOKUP_TABLE default
0 
1 
2 
3 
4 
5 
6 
7 
8 
9 
10 
11 
12 
13 
14 
15 
16 
17 
18 
19 
20 
21 
22 
23 
24 
25 
26 
27 
28 
29 
30 
31 
32 
33 
34 
35 
36 
37 
38 
39 
40 
41 
42 
43 
44 
45 
46 
47 
48 
49 
50 
51 
52 
53 
54 
55 
56 
57 
58 
59 
60 
61 
62 
63 
64 
65 
66 
67 
68 
69 
70 
71 
72 
73 
74 
75 
76 
77 
78 
79 
80 
SCALARS permeability double 1
LOOKUP_TABLE default
100 
100 
100 
100 
100 
100 
100 
100 
100 
100 
100 
100 
100 
100 
100 
100 
100 
100 
100 
100 
100 
100 
100 
100 
100 
100 
100 
100 
100 
100 
100 
100 
100 
100 
100 
100 
100 
100 
100 
100 
100 
100 
100 
100 
100 
100 
100 
100 
100 
100 
100 
100 
100 
100 
100 
100 
100 
100 
100 
100 
100 
100 
100 
100 
100 
100 
100 
100 
100 
100 
100 
100 
100 
100 
100 
100 
100 
100 
100 
100 
100 
SCALARS porosity double 1
LOOKUP_TABLE default
0.28 
0.28 
0.28 
0.28 
0.28 
0.28 
0.28 
0.28 
0.28 
0.28 
0.28 
0.28 
0.28 
0.28 
0.28 
0.28 
0.28 
0.28 
0.28 
0.28 
0.28 
0.28 
0.28 
0.28 
0.28 
0.28 
0.28 
0.28 
0.28 
0.28 
0.28 
0.28 
0.28 
0.28 
0.28 
0.28 
0.28 
0.28 
0.28 
0.28 
0.28 
0.28 
0.28 
0.28 
0.28 
0.3 
0.3 
0.3 
0.3 
0.3 
0.3 
0.3 
0.3 
0.3 
0.3 
0.3 
0.3 
0.3 
0.3 
0.3 
0.3 
0.3 
0.3 
0.3 
0.3 
0.3 
0.3 
0.3 
0.3 
0.3 
0.3 
0.3 
0.3 
0.3 
0.3 
0.3 
0.3 
0.3 
0.3 
0.3 
0.3 
SCALARS P_DAY=0 double 1
LOOKUP_TABLE default
5382 
5382 
5382 
5382 
5382 
5382 
5382 
5382 
5382 
5382 
5382 
5382 
5382 
5382 
5382 
5382 
5382 
5382 
5382 
5382 
5382 
5382 
5382 
5382 
5382 
5382 
5382 
5382 
5382 
5382 
5382 
5382 
5382 
5382 
5382 
5382 
5382 
5382 
5382 
5382 
5382 
5382 
5382 
5382 
5382 
5382 
5382 
5382 
5382 
5382 
5382 
5382 
5382 
5382 
5382 
5382 
5382 
5382 
5382 
5382 
5382 
5382 
5382 
5382 
5382 
5382 
5382 
5382 
5382 
5382 
5382 
5382 
5382 
5382 
5382 
5382 
5382 
5382 
5382 
5382 
5382 
SCALARS P_DAY=365 double 1
LOOKUP_TABLE default
1906 
1905 
1902 
1899 
1897 
1894 
1891 
1888 
1887 
1905 
1903 
1901 
1898 
1895 
1892 
1888 
1885 
1883 
1903 
1901 
1898 
1894 
1891 
1887 
1882 
1878 
1876 
1900 
1898 
1894 
1889 
1885 
1880 
1873 
1867 
1864 
1898 
1895 
1891 
1885 
1879 
1872 
1863 
1855 
1850 
1895 
1893 
1888 
1880 
1873 
1865 
1853 
1842 
1834 
1892 
1889 
1883 
1874 
1864 
1853 
1836 
1817 
1802 
1890 
1886 
1879 
1868 
1856 
1842 
1817 
1786 
1753 
1889 
1885 
1877 
1865 
1851 
1834 
1802 
1753 
1667 
SCALARS P_DAY=730 double 1
LOOKUP_TABLE default
2657 
2571 
2513 
2466 
2444 
2436 
2429 
2424 
2421 
2571 
2534 
2491 
2453 
2441 
2434 
2427 
2422 
2420 
2513 
2491 
2459 
2443 
2436 
2430 
2423 
2419 
2416 
2465 
2452 
2443 
2435 
2430 
2424 
2419 
2414 
2412 
2444 
2441 
2436 
2430 
2425 
2420 
2415 
2410 
2408 
2435 
2433 
2429 
2424 
2420 
2416 
2410 
2405 
2403 
2428 
2426 
2423 
2418 
2414 
2410 
2404 
2398 
2395 
2423 
2421 
2418 
2414 
2410 
2405 
2398 
2391 
2384 
2420 
2419 
2416 
2411 
2407 
2402 
2395 
2384 
2368 
SCALARS P_DAY=1095 double 1
LOOKUP_TABLE default
3429 
3345 
3292 
3251 
3224 
3201 
3192 
3187 
3184 
3345 
3310 
3274 
3238 
3213 
3197 
3190 
3185 
3183 
3292 
3274 
3246 
3215 
3200 
3192 
3186 
3181 
3179 
3251 
3237 
3215 
3198 
3192 
3186 
3180 
3176 
3173 
3224 
3213 
3200 
3192 
3186 
3181 
3175 
3170 
3168 
3201 
3197 
3192 
3186 
3181 
3176 
3170 
3164 
3161 
3191 
3189 
3185 
3180 
3175 
3170 
3162 
3155 
3150 
3187 
3185 
3181 
3175 
3170 
3164 
3155 
3144 
3133 
3184 
3182 
3179 
3173 
3167 
3161 
3150 
3133 
3106 
SCALARS P_DAY=1460 double 1
LOOKUP_TABLE default
4292 
4210 
4158 
4122 
4096 
4073 
4051 
4045 
4043 
4210 
4176 
4143 
4110 
4086 
4065 
4048 
4043 
4040 
4158 
4142 
4118 
4090 
4071 
4053 
4044 
4039 
4036 
4121 
4109 
4090 
4067 
4052 
4044 
4038 
4033 
4030 
4095 
4085 
4070 
4052 
4045 
4039 
4032 
4027 
4024 
4073 
4064 
4052 
4044 
4039 
4033 
4027 
4021 
4017 
4051 
4048 
4044 
4038 
4032 
4027 
4019 
4011 
4005 
4045 
4043 
4039 
4033 
4027 
4021 
4011 
3999 
3988 
4042 
4040 
4036 
4030 
4024 
4017 
4005 
3988 
3960 
SCALARS P_DAY=1825 double 1
LOOKUP_TABLE default
4357 
4276 
4224 
4188 
4162 
4141 
4116 
4103 
4100 
4276 
4242 
4208 
4177 
4153 
4133 
4109 
4100 
4097 
4224 
4208 
4184 
4157 
4138 
4119 
4100 
4094 
4091 
4187 
4176 
4157 
4136 
4118 
4101 
4091 
4086 
4083 
4162 
4153 
4138 
4118 
4103 
4092 
4084 
4078 
4074 
4141 
4133 
4119 
4101 
4092 
4085 
4076 
4069 
4064 
4115 
4109 
4100 
4091 
4084 
4076 
4065 
4055 
4047 
4103 
4100 
4094 
4086 
4078 
4069 
4055 
4038 
4021 
4100 
4097 
4091 
4083 
4074 
4064 
4047 
4021 
3979 
SCALARS P_DAY=2190 double 1
LOOKUP_TABLE default
4417 
4335 
4284 
4248 
4224 
4205 
4181 
4162 
4157 
4335 
4302 
4268 
4238 
4216 
4197 
4174 
4157 
4153 
4284 
4268 
4245 
4219 
4202 
4184 
4161 
4150 
4147 
4248 
4237 
4219 
4199 
4183 
4167 
4147 
4140 
4138 
4224 
4215 
4201 
4183 
4167 
4151 
4138 
4132 
4129 
4204 
4197 
4184 
4166 
4151 
4139 
4130 
4123 
4119 
4180 
4173 
4160 
4147 
4138 
4130 
4119 
4109 
4101 
4161 
4157 
4150 
4140 
4132 
4123 
4109 
4092 
4075 
4157 
4153 
4147 
4138 
4129 
4119 
4101 
4075 
4033 
SCALARS P_DAY=2555 double 1
LOOKUP_TABLE default
4477 
4396 
4344 
4309 
4286 
4267 
4245 
4226 
4217 
4396 
4362 
4329 
4299 
4278 
4260 
4239 
4220 
4213 
4344 
4329 
4306 
4281 
4264 
4248 
4227 
4210 
4205 
4309 
4299 
4281 
4262 
4247 
4231 
4210 
4198 
4195 
4285 
4277 
4264 
4246 
4231 
4216 
4196 
4188 
4185 
4267 
4260 
4247 
4230 
4216 
4200 
4185 
4178 
4174 
4244 
4238 
4226 
4209 
4196 
4185 
4174 
4164 
4156 
4225 
4219 
4209 
4198 
4188 
4179 
4164 
4147 
4130 
4217 
4213 
4205 
4195 
4185 
4174 
4156 
4130 
4088 
SCALARS P_DAY=2920 double 1
LOOKUP_TABLE default
4540 
4459 
4407 
4372 
4349 
4332 
4311 
4294 
4282 
4459 
4425 
4392 
4362 
4342 
4325 
4305 
4288 
4277 
4407 
4392 
4369 
4345 
4329 
4313 
4293 
4276 
4267 
4372 
4362 
4345 
4327 
4312 
4297 
4277 
4260 
4255 
4349 
4341 
4329 
4312 
4297 
4282 
4263 
4247 
4243 
4331 
4325 
4313 
4296 
4282 
4267 
4246 
4235 
4231 
4310 
4304 
4293 
4277 
4262 
4246 
4229 
4219 
4212 
4293 
4286 
4274 
4259 
4247 
4235 
4219 
4202 
4186 
4281 
4276 
4267 
4254 
4243 
4231 
4212 
4186 
4143 
SCALARS P_DAY=3285 double 1
LOOKUP_TABLE default
4606 
4525 
4474 
4439 
4416 
4399 
4380 
4364 
4353 
4525 
4491 
4458 
4429 
4409 
4393 
4374 
4358 
4346 
4474 
4458 
4435 
4411 
4396 
4381 
4362 
4346 
4334 
4439 
4428 
4411 
4394 
4379 
4365 
4346 
4329 
4318 
4416 
4408 
4396 
4379 
4365 
4350 
4331 
4313 
4305 
4399 
4392 
4381 
4365 
4350 
4335 
4315 
4295 
4291 
4379 
4373 
4361 
4345 
4330 
4314 
4291 
4276 
4269 
4363 
4356 
4344 
4327 
4311 
4295 
4276 
4258 
4242 
4351 
4344 
4333 
4318 
4305 
4291 
4269 
4242 
4199 
SCALARS P_DAY=3650 double 1
LOOKUP_TABLE default
4675 
4595 
4544 
4509 
4487 
4471 
4453 
4439 
4430 
4595 
4561 
4529 
4499 
4479 
4464 
4447 
4432 
4422 
4544 
4528 
4505 
4482 
4467 
4452 
4435 
4419 
4408 
4509 
4499 
4481 
4464 
4450 
4436 
4418 
4401 
4389 
4487 
4479 
4466 
4450 
4436 
4422 
4402 
4384 
4371 
4470 
4463 
4452 
4436 
4422 
4406 
4386 
4365 
4352 
4452 
4445 
4433 
4417 
4402 
4385 
4361 
4336 
4326 
4437 
4430 
4418 
4400 
4383 
4364 
4336 
4312 
4296 
4426 
4419 
4406 
4387 
4370 
4352 
4326 
4296 
4252 
SCALARS P_DAY=4015 double 1
LOOKUP_TABLE default
4750 
4670 
4619 
4585 
4563 
4547 
4530 
4517 
4510 
4670 
4636 
4604 
4574 
4555 
4540 
4524 
4511 
4503 
4619 
4604 
4580 
4557 
4542 
4528 
4511 
4498 
4489 
4584 
4574 
4556 
4539 
4525 
4512 
4494 
4479 
4468 
4562 
4554 
4542 
4525 
4511 
4497 
4477 
4460 
4446 
4546 
4539 
4527 
4511 
4497 
4481 
4460 
4439 
4422 
4529 
4522 
4510 
4493 
4477 
4459 
4433 
4406 
4384 
4515 
4509 
4496 
4477 
4458 
4438 
4406 
4369 
4342 
4507 
4500 
4486 
4464 
4444 
4420 
4384 
4342 
4292 
SCALARS P_DAY=4380 double 1
LOOKUP_TABLE default
4830 
4750 
4699 
4665 
4643 
4627 
4611 
4600 
4593 
4750 
4717 
4684 
4654 
4635 
4621 
4605 
4593 
4587 
4699 
4684 
4660 
4637 
4622 
4608 
4593 
4580 
4573 
4665 
4654 
4637 
4619 
4605 
4592 
4575 
4561 
4552 
4643 
4635 
4622 
4605 
4591 
4577 
4558 
4541 
4530 
4627 
4620 
4608 
4592 
4577 
4561 
4539 
4518 
4504 
4611 
4604 
4592 
4574 
4557 
4538 
4510 
4481 
4457 
4599 
4592 
4579 
4559 
4540 
4517 
4481 
4437 
4392 
4592 
4585 
4571 
4550 
4528 
4502 
4456 
4392 
4295 
SCALARS P_DAY=4745 double 1
LOOKUP_TABLE default
4288 
4206 
4154 
4119 
4096 
4080 
4064 
4052 
4046 
4206 
4172 
4138 
4108 
4088 
4073 
4057 
4045 
4039 
4154 
4138 
4114 
4089 
4074 
4060 
4043 
4031 
4024 
4119 
4108 
4089 
4071 
4056 
4042 
4024 
4009 
4000 
4097 
4088 
4074 
4056 
4041 
4026 
4005 
3987 
3976 
4080 
4073 
4060 
4042 
4026 
4008 
3984 
3961 
3947 
4064 
4057 
4044 
4024 
4005 
3984 
3951 
3917 
3892 
4053 
4045 
4031 
4009 
3987 
3961 
3917 
3864 
3810 
4046 
4039 
4024 
4000 
3976 
3947 
3892 
3810 
3669 
SCALARS P_DAY=5110 double 1
LOOKUP_TABLE default
3723 
3639 
3586 
3551 
3528 
3511 
3495 
3484 
3478 
3639 
3604 
3570 
3539 
3519 
3504 
3488 
3477 
3471 
3586 
3570 
3546 
3521 
3505 
3491 
3475 
3463 
3456 
3551 
3540 
3521 
3502 
3488 
3473 
3456 
3442 
3433 
3528 
3520 
3506 
3488 
3473 
3457 
3437 
3420 
3409 
3512 
3504 
3491 
3474 
3458 
3441 
3417 
3394 
3380 
3496 
3489 
3475 
3456 
3437 
3417 
3385 
3351 
3326 
3484 
3477 
3463 
3442 
3420 
3394 
3351 
3298 
3244 
3478 
3471 
3456 
3433 
3409 
3380 
3326 
3245 
3108 
SCALARS P_DAY=5475 double 1
LOOKUP_TABLE default
3141 
3056 
3003 
2967 
2945 
2928 
2912 
2901 
2894 
3056 
3021 
2987 
2956 
2936 
2920 
2905 
2894 
2887 
3003 
2987 
2962 
2937 
2922 
2907 
2892 
2880 
2873 
2968 
2956 
2937 
2918 
2904 
2890 
2872 
2858 
2850 
2945 
2936 
2922 
2904 
2889 
2874 
2854 
2837 
2826 
2928 
2921 
2908 
2890 
2874 
2857 
2834 
2812 
2798 
2912 
2905 
2892 
2873 
2854 
2834 
2802 
2769 
2744 
2901 
2894 
2880 
2859 
2837 
2812 
2769 
2717 
2665 
2895 
2888 
2873 
2850 
2827 
2798 
2745 
2665 
2532 
SCALARS P_DAY=5840 double 1
LOOKUP_TABLE default
2628 
2542 
2490 
2454 
2431 
2415 
2399 
2388 
2383 
2542 
2508 
2474 
2443 
2423 
2407 
2392 
2381 
2376 
2490 
2474 
2449 
2424 
2409 
2395 
2379 
2368 
2362 
2454 
2443 
2424 
2406 
2391 
2377 
2361 
2348 
2340 
2432 
2423 
2409 
2391 
2377 
2362 
2343 
2327 
2317 
2415 
2408 
2395 
2378 
2362 
2346 
2323 
2303 
2289 
2399 
2393 
2380 
2361 
2343 
2323 
2293 
2261 
2236 
2389 
2382 
2369 
2348 
2327 
2303 
2261 
2208 
2153 
2383 
2377 
2363 
2341 
2318 
2290 
2236 
2153 
2006 
SCALARS So_DAY=0 double 1
LOOKUP_TABLE default
0.88 
0.88 
0.88 
0.88 
0.88 
0.88 
0.88 
0.88 
0.88 
0.88 
0.88 
0.88 
0.88 
0.88 
0.88 
0.88 
0.88 
0.88 
0.88 
0.88 
0.88 
0.88 
0.88 
0.88 
0.88 
0.88 
0.88 
0.88 
0.88 
0.88 
0.88 
0.88 
0.88 
0.88 
0.88 
0.88 
0.88 
0.88 
0.88 
0.88 
0.88 
0.88 
0.88 
0.88 
0.88 
0.88 
0.88 
0.88 
0.88 
0.88 
0.88 
0.88 
0.88 
0.88 
0.88 
0.88 
0.88 
0.88 
0.88 
0.88 
0.88 
0.88 
0.88 
0.88 
0.88 
0.88 
0.88 
0.88 
0.88 
0.88 
0.88 
0.88 
0.88 
0.88 
0.88 
0.88 
0.88 
0.88 
0.88 
0.88 
0.88 
SCALARS So_DAY=365 double 1
LOOKUP_TABLE default
0.7984 
0.7983 
0.798 
0.7975 
0.7972 
0.7968 
0.7963 
0.7958 
0.7956 
0.7983 
0.7981 
0.7978 
0.7973 
0.797 
0.7965 
0.7959 
0.7954 
0.7951 
0.798 
0.7978 
0.7974 
0.7969 
0.7965 
0.7959 
0.7953 
0.7948 
0.7944 
0.7976 
0.7974 
0.797 
0.7964 
0.7959 
0.7952 
0.7945 
0.7938 
0.7933 
0.7973 
0.7971 
0.7966 
0.7959 
0.7955 
0.7947 
0.7939 
0.7931 
0.7925 
0.7969 
0.7966 
0.796 
0.7953 
0.7947 
0.7938 
0.7928 
0.7918 
0.791 
0.7964 
0.7961 
0.7954 
0.7945 
0.7939 
0.7928 
0.7915 
0.7902 
0.7891 
0.796 
0.7956 
0.7949 
0.7939 
0.7932 
0.7919 
0.7902 
0.7885 
0.7869 
0.7958 
0.7953 
0.7945 
0.7934 
0.7926 
0.7911 
0.7892 
0.7869 
0.7842 
SCALARS So_DAY=730 double 1
LOOKUP_TABLE default
0.307 
0.3409 
0.4205 
0.6394 
0.8363 
0.8777 
0.8789 
0.8753 
0.8677 
0.3409 
0.3921 
0.5271 
0.7962 
0.8732 
0.8788 
0.8789 
0.8735 
0.8672 
0.4203 
0.5268 
0.7685 
0.8733 
0.8787 
0.8789 
0.8789 
0.8717 
0.8666 
0.6387 
0.7959 
0.8732 
0.8788 
0.8789 
0.8789 
0.876 
0.8696 
0.8662 
0.8358 
0.8731 
0.8787 
0.8789 
0.879 
0.8789 
0.8733 
0.8686 
0.866 
0.8778 
0.8788 
0.8789 
0.8789 
0.8789 
0.8743 
0.8703 
0.8671 
0.8662 
0.8789 
0.8789 
0.8789 
0.8752 
0.873 
0.8701 
0.8675 
0.8668 
0.8667 
0.8745 
0.8729 
0.871 
0.8691 
0.8681 
0.867 
0.8668 
0.8669 
0.8671 
0.8674 
0.8669 
0.8663 
0.866 
0.8659 
0.8662 
0.8667 
0.8671 
0.8671 
SCALARS So_DAY=1095 double 1
LOOKUP_TABLE default
0.3016 
0.3134 
0.3524 
0.439 
0.5212 
0.8073 
0.8769 
0.8792 
0.8792 
0.3134 
0.3365 
0.3972 
0.5068 
0.6704 
0.8636 
0.8788 
0.8792 
0.8792 
0.3523 
0.3971 
0.4719 
0.6886 
0.8448 
0.878 
0.8792 
0.8792 
0.8792 
0.4387 
0.5065 
0.6883 
0.8568 
0.8773 
0.8792 
0.8792 
0.8792 
0.8792 
0.5203 
0.6693 
0.8446 
0.8773 
0.8791 
0.8792 
0.8792 
0.8792 
0.8792 
0.811 
0.8645 
0.8781 
0.8792 
0.8792 
0.8792 
0.8792 
0.8792 
0.8792 
0.8771 
0.8789 
0.8792 
0.8792 
0.8792 
0.8792 
0.8792 
0.8792 
0.8792 
0.8792 
0.8792 
0.8792 
0.8792 
0.8792 
0.8792 
0.8792 
0.8792 
0.8792 
0.8792 
0.8792 
0.8792 
0.8792 
0.8792 
0.8792 
0.8792 
0.8792 
0.8792 
SCALARS So_DAY=1460 double 1
LOOKUP_TABLE default
0.2962 
0.3056 
0.3217 
0.3847 
0.406 
0.5839 
0.8336 
0.8782 
0.8795 
0.3056 
0.3114 
0.3593 
0.4136 
0.4513 
0.6916 
0.8649 
0.8792 
0.8795 
0.3217 
0.3593 
0.3959 
0.4737 
0.5722 
0.8293 
0.8777 
0.8795 
0.8795 
0.3845 
0.4134 
0.4735 
0.6457 
0.8088 
0.8756 
0.8794 
0.8795 
0.8795 
0.4056 
0.4508 
0.5717 
0.8087 
0.8703 
0.8791 
0.8795 
0.8795 
0.8795 
0.595 
0.702 
0.8329 
0.8759 
0.8792 
0.8795 
0.8795 
0.8795 
0.8795 
0.8396 
0.8668 
0.878 
0.8794 
0.8795 
0.8795 
0.8795 
0.8795 
0.8795 
0.8785 
0.8793 
0.8795 
0.8795 
0.8795 
0.8795 
0.8795 
0.8795 
0.8795 
0.8795 
0.8795 
0.8795 
0.8795 
0.8795 
0.8795 
0.8795 
0.8795 
0.8795 
SCALARS So_DAY=1825 double 1
LOOKUP_TABLE default
0.2958 
0.3052 
0.3108 
0.364 
0.3706 
0.4634 
0.6791 
0.862 
0.8792 
0.3052 
0.3045 
0.342 
0.3858 
0.3937 
0.5097 
0.7597 
0.8728 
0.8794 
0.3107 
0.342 
0.3703 
0.4061 
0.4378 
0.6131 
0.8408 
0.8782 
0.8795 
0.3638 
0.3857 
0.406 
0.4769 
0.5429 
0.7891 
0.8741 
0.8794 
0.8795 
0.3704 
0.3934 
0.4375 
0.543 
0.6849 
0.8597 
0.8786 
0.8795 
0.8795 
0.4716 
0.5204 
0.6276 
0.7972 
0.8618 
0.8784 
0.8795 
0.8795 
0.8795 
0.6988 
0.7752 
0.8471 
0.8751 
0.8788 
0.8795 
0.8795 
0.8795 
0.8795 
0.8657 
0.8743 
0.8785 
0.8794 
0.8795 
0.8795 
0.8795 
0.8795 
0.8795 
0.8793 
0.8795 
0.8795 
0.8795 
0.8795 
0.8795 
0.8795 
0.8795 
0.8795 
SCALARS So_DAY=2190 double 1
LOOKUP_TABLE default
0.2955 
0.3048 
0.3053 
0.3509 
0.348 
0.4122 
0.5404 
0.7911 
0.8764 
0.3048 
0.3017 
0.3319 
0.3702 
0.3665 
0.436 
0.5946 
0.8317 
0.8783 
0.3053 
0.3319 
0.353 
0.3768 
0.3972 
0.4815 
0.6967 
0.8642 
0.8793 
0.3507 
0.3699 
0.3767 
0.4165 
0.4421 
0.5796 
0.8167 
0.8767 
0.8795 
0.3478 
0.3662 
0.397 
0.4419 
0.4785 
0.6859 
0.86 
0.8788 
0.8795 
0.4176 
0.4431 
0.4913 
0.5951 
0.7034 
0.8523 
0.8777 
0.8795 
0.8795 
0.5587 
0.6171 
0.7204 
0.8282 
0.8639 
0.8779 
0.8794 
0.8795 
0.8795 
0.8081 
0.8423 
0.8679 
0.8774 
0.879 
0.8795 
0.8795 
0.8795 
0.8795 
0.8774 
0.8787 
0.8793 
0.8795 
0.8795 
0.8795 
0.8795 
0.8795 
0.8795 
SCALARS So_DAY=2555 double 1
LOOKUP_TABLE default
0.2951 
0.3044 
0.3025 
0.3425 
0.3325 
0.3855 
0.4666 
0.6701 
0.862 
0.3044 
0.3005 
0.326 
0.3592 
0.3475 
0.4011 
0.495 
0.7247 
0.8706 
0.3025 
0.326 
0.3412 
0.3561 
0.3752 
0.4266 
0.548 
0.7963 
0.8767 
0.3424 
0.3589 
0.356 
0.3898 
0.4043 
0.4729 
0.6517 
0.8527 
0.8789 
0.3323 
0.3473 
0.375 
0.4041 
0.4197 
0.5058 
0.7393 
0.8695 
0.8793 
0.3895 
0.4055 
0.433 
0.4825 
0.5191 
0.6956 
0.8536 
0.8781 
0.8795 
0.4792 
0.5107 
0.5698 
0.6804 
0.7644 
0.8561 
0.877 
0.8794 
0.8796 
0.6978 
0.7511 
0.815 
0.8602 
0.8723 
0.8784 
0.8794 
0.8795 
0.8796 
0.867 
0.8733 
0.8777 
0.8791 
0.8794 
0.8795 
0.8796 
0.8796 
0.8796 
SCALARS So_DAY=2920 double 1
LOOKUP_TABLE default
0.2947 
0.304 
0.301 
0.3371 
0.3216 
0.3663 
0.4265 
0.5668 
0.8191 
0.304 
0.2999 
0.3226 
0.3515 
0.3335 
0.3802 
0.4434 
0.604 
0.8409 
0.301 
0.3226 
0.3332 
0.3407 
0.3576 
0.3993 
0.4718 
0.6681 
0.8622 
0.337 
0.3512 
0.3406 
0.3706 
0.3853 
0.4251 
0.5212 
0.758 
0.8743 
0.3214 
0.3333 
0.3574 
0.3852 
0.3968 
0.4404 
0.5566 
0.8079 
0.8774 
0.3697 
0.3838 
0.4032 
0.4313 
0.4483 
0.53 
0.7264 
0.864 
0.8791 
0.4354 
0.4542 
0.486 
0.5422 
0.5847 
0.7401 
0.8527 
0.877 
0.8795 
0.5917 
0.6333 
0.7011 
0.7857 
0.8277 
0.8671 
0.8772 
0.8792 
0.8795 
0.8344 
0.8521 
0.8679 
0.8761 
0.8782 
0.8792 
0.8795 
0.8795 
0.8796 
SCALARS So_DAY=3285 double 1
LOOKUP_TABLE default
0.2943 
0.3036 
0.3002 
0.3337 
0.3139 
0.3515 
0.4028 
0.5021 
0.7499 
0.3036 
0.2995 
0.3207 
0.3463 
0.3231 
0.3637 
0.414 
0.5234 
0.7777 
0.3002 
0.3207 
0.3279 
0.329 
0.3435 
0.3816 
0.4313 
0.5581 
0.8128 
0.3336 
0.346 
0.3289 
0.355 
0.369 
0.4011 
0.4581 
0.6164 
0.8474 
0.3138 
0.3229 
0.3433 
0.3689 
0.3811 
0.4097 
0.4726 
0.6575 
0.8622 
0.3545 
0.367 
0.385 
0.4048 
0.4145 
0.4571 
0.5552 
0.7823 
0.8751 
0.4093 
0.4217 
0.4409 
0.4714 
0.4883 
0.5674 
0.7319 
0.8557 
0.8783 
0.5205 
0.5453 
0.5859 
0.6531 
0.699 
0.7992 
0.8581 
0.8755 
0.8791 
0.7742 
0.8004 
0.8319 
0.8589 
0.8688 
0.8763 
0.8785 
0.8791 
0.8794 
SCALARS So_DAY=3650 double 1
LOOKUP_TABLE default
0.2939 
0.3031 
0.2998 
0.3315 
0.3086 
0.3399 
0.3868 
0.4623 
0.6801 
0.3031 
0.2991 
0.3197 
0.3427 
0.3154 
0.3505 
0.3958 
0.475 
0.7021 
0.2998 
0.3197 
0.3245 
0.3201 
0.3322 
0.3668 
0.4073 
0.4935 
0.7328 
0.3314 
0.3424 
0.3201 
0.3423 
0.355 
0.3854 
0.4234 
0.5207 
0.7725 
0.3085 
0.3152 
0.3321 
0.3549 
0.3666 
0.3932 
0.4311 
0.5342 
0.7942 
0.3426 
0.3534 
0.3698 
0.3885 
0.3962 
0.4198 
0.4715 
0.6128 
0.8433 
0.3922 
0.4013 
0.4141 
0.4323 
0.4413 
0.4786 
0.5554 
0.7457 
0.8678 
0.4758 
0.4906 
0.5125 
0.5463 
0.5641 
0.641 
0.7575 
0.8462 
0.8752 
0.7059 
0.7299 
0.7622 
0.8004 
0.8211 
0.8542 
0.8701 
0.8755 
0.8781 
SCALARS So_DAY=4015 double 1
LOOKUP_TABLE default
0.2934 
0.3026 
0.2993 
0.3302 
0.3049 
0.3308 
0.3738 
0.4368 
0.6248 
0.3026 
0.2987 
0.3191 
0.3404 
0.3097 
0.3398 
0.3821 
0.445 
0.6389 
0.2993 
0.3191 
0.3223 
0.3135 
0.3233 
0.3543 
0.3924 
0.4556 
0.6563 
0.33 
0.3401 
0.3135 
0.332 
0.3431 
0.3715 
0.4032 
0.4692 
0.6783 
0.3048 
0.3096 
0.3232 
0.343 
0.3537 
0.3793 
0.4078 
0.4742 
0.6859 
0.3331 
0.3424 
0.357 
0.3744 
0.3822 
0.4005 
0.4294 
0.5037 
0.7352 
0.3787 
0.3871 
0.3974 
0.4091 
0.4145 
0.4341 
0.4702 
0.5584 
0.7912 
0.447 
0.4565 
0.469 
0.4857 
0.4921 
0.5204 
0.5714 
0.6932 
0.8393 
0.6478 
0.6641 
0.6849 
0.7118 
0.7236 
0.7639 
0.8062 
0.8434 
0.8653 
SCALARS So_DAY=4380 double 1
LOOKUP_TABLE default
0.2929 
0.3021 
0.2989 
0.3293 
0.3024 
0.3235 
0.3629 
0.4192 
0.5834 
0.3021 
0.2982 
0.3185 
0.3389 
0.3057 
0.3311 
0.3704 
0.425 
0.592 
0.2989 
0.3185 
0.3211 
0.3086 
0.3163 
0.3437 
0.3799 
0.4316 
0.6005 
0.3292 
0.3386 
0.3086 
0.3236 
0.3331 
0.3592 
0.39 
0.4388 
0.6085 
0.3023 
0.3056 
0.3162 
0.333 
0.3424 
0.3665 
0.3937 
0.4406 
0.6073 
0.3255 
0.3334 
0.3462 
0.3619 
0.3692 
0.387 
0.4062 
0.4528 
0.6186 
0.3675 
0.3751 
0.3846 
0.3947 
0.3982 
0.4091 
0.4273 
0.4707 
0.6295 
0.4274 
0.4339 
0.4416 
0.4504 
0.4528 
0.4632 
0.4776 
0.5085 
0.6477 
0.6032 
0.6135 
0.6247 
0.6364 
0.6368 
0.6464 
0.6527 
0.6616 
0.7291 
SCALARS So_DAY=4745 double 1
LOOKUP_TABLE default
0.2962 
0.3056 
0.3018 
0.3331 
0.3048 
0.3214 
0.3573 
0.4096 
0.5527 
0.3056 
0.3012 
0.3221 
0.3427 
0.307 
0.3276 
0.3639 
0.4138 
0.5578 
0.3018 
0.3221 
0.3245 
0.309 
0.3145 
0.3381 
0.3724 
0.418 
0.5613 
0.3329 
0.3425 
0.309 
0.3204 
0.3282 
0.3518 
0.3815 
0.4218 
0.5617 
0.3048 
0.307 
0.3144 
0.3282 
0.3361 
0.3582 
0.3848 
0.4222 
0.558 
0.3232 
0.3297 
0.3405 
0.3544 
0.3608 
0.3775 
0.396 
0.4262 
0.5515 
0.3617 
0.3685 
0.377 
0.3861 
0.3893 
0.398 
0.4068 
0.431 
0.5358 
0.4166 
0.4213 
0.4261 
0.4306 
0.431 
0.4334 
0.4357 
0.4462 
0.5147 
0.571 
0.5771 
0.5819 
0.5839 
0.5807 
0.5721 
0.5527 
0.5253 
0.5267 
SCALARS So_DAY=5110 double 1
LOOKUP_TABLE default
0.2998 
0.3091 
0.3036 
0.3363 
0.3082 
0.3205 
0.3525 
0.4021 
0.5272 
0.3091 
0.303 
0.325 
0.3466 
0.3102 
0.3255 
0.3584 
0.4052 
0.5302 
0.3036 
0.325 
0.328 
0.3111 
0.3144 
0.334 
0.3658 
0.4082 
0.5311 
0.3362 
0.3464 
0.311 
0.319 
0.325 
0.3457 
0.3738 
0.4104 
0.5284 
0.3082 
0.3101 
0.3143 
0.325 
0.3314 
0.3512 
0.3768 
0.4104 
0.5242 
0.3221 
0.3274 
0.3362 
0.3481 
0.3537 
0.369 
0.3873 
0.4122 
0.5143 
0.3568 
0.3628 
0.3704 
0.3785 
0.3813 
0.3895 
0.3982 
0.4134 
0.4969 
0.4083 
0.4117 
0.4151 
0.4176 
0.4175 
0.4177 
0.4169 
0.4216 
0.4747 
0.5443 
0.548 
0.5496 
0.5477 
0.5434 
0.531 
0.51 
0.484 
0.483 
SCALARS So_DAY=5475 double 1
LOOKUP_TABLE default
0.3034 
0.3105 
0.3055 
0.3387 
0.3117 
0.3206 
0.3486 
0.3959 
0.5061 
0.3105 
0.3049 
0.3272 
0.3496 
0.314 
0.3247 
0.3537 
0.3986 
0.5077 
0.3055 
0.3271 
0.3309 
0.3139 
0.3158 
0.3312 
0.3601 
0.4007 
0.5073 
0.3386 
0.3493 
0.3139 
0.319 
0.3234 
0.3408 
0.3671 
0.4022 
0.5036 
0.3117 
0.314 
0.3158 
0.3233 
0.3283 
0.3456 
0.3697 
0.4021 
0.4995 
0.3221 
0.3264 
0.3332 
0.3431 
0.3479 
0.3617 
0.3794 
0.4032 
0.4893 
0.3527 
0.358 
0.3646 
0.3717 
0.3742 
0.3816 
0.3907 
0.4043 
0.472 
0.4016 
0.4042 
0.4067 
0.4083 
0.408 
0.4077 
0.4071 
0.4097 
0.4523 
0.5217 
0.5239 
0.524 
0.5204 
0.5161 
0.5038 
0.4843 
0.46 
0.4584 
SCALARS So_DAY=5840 double 1
LOOKUP_TABLE default
0.3063 
0.3107 
0.3064 
0.34 
0.3143 
0.3211 
0.3451 
0.3898 
0.4857 
0.3107 
0.3057 
0.3283 
0.3513 
0.3172 
0.3246 
0.3495 
0.3923 
0.4862 
0.3064 
0.3283 
0.3328 
0.3165 
0.3177 
0.3293 
0.3549 
0.3944 
0.4845 
0.3399 
0.3511 
0.3165 
0.3198 
0.3227 
0.3369 
0.3609 
0.3956 
0.4794 
0.3143 
0.3172 
0.3177 
0.3227 
0.3263 
0.3408 
0.363 
0.3946 
0.4749 
0.3223 
0.3261 
0.3311 
0.339 
0.3429 
0.3551 
0.3718 
0.3945 
0.4636 
0.3489 
0.3536 
0.3592 
0.3653 
0.3674 
0.3741 
0.3821 
0.3949 
0.4483 
0.3955 
0.3979 
0.3998 
0.4009 
0.3997 
0.3982 
0.397 
0.399 
0.4338 
0.4995 
0.5004 
0.499 
0.4942 
0.4895 
0.4764 
0.4582 
0.44 
0.4409 
SCALARS Sw_DAY=0 double 1
LOOKUP_TABLE default
0.12 
0.12 
0.12 
0.12 
0.12 
0.12 
0.12 
0.12 
0.12 
0.12 
0.12 
0.12 
0.12 
0.12 
0.12 
0.12 
0.12 
0.12 
0.12 
0.12 
0.12 
0.12 
0.12 
0.12 
0.12 
0.12 
0.12 
0.12 
0.12 
0.12 
0.12 
0.12 
0.12 
0.12 
0.12 
0.12 
0.12 
0.12 
0.12 
0.12 
0.12 
0.12 
0.12 
0.12 
0.12 
0.12 
0.12 
0.12 
0.12 
0.12 
0.12 
0.12 
0.12 
0.12 
0.12 
0.12 
0.12 
0.12 
0.12 
0.12 
0.12 
0.12 
0.12 
0.12 
0.12 
0.12 
0.12 
0.12 
0.12 
0.12 
0.12 
0.12 
0.12 
0.12 
0.12 
0.12 
0.12 
0.12 
0.12 
0.12 
0.12 
SCALARS Sw_DAY=365 double 1
LOOKUP_TABLE default
0.1212 
0.1212 
0.1212 
0.1212 
0.1212 
0.1212 
0.1212 
0.1212 
0.1212 
0.1212 
0.1212 
0.1212 
0.1212 
0.1212 
0.1212 
0.1212 
0.1212 
0.1212 
0.1212 
0.1212 
0.1212 
0.1212 
0.1212 
0.1212 
0.1212 
0.1212 
0.1212 
0.1212 
0.1212 
0.1212 
0.1212 
0.1212 
0.1212 
0.1212 
0.1212 
0.1212 
0.1212 
0.1212 
0.1212 
0.1212 
0.1212 
0.1212 
0.1212 
0.1212 
0.1212 
0.1212 
0.1212 
0.1212 
0.1212 
0.1212 
0.1212 
0.1212 
0.1212 
0.1212 
0.1212 
0.1212 
0.1212 
0.1212 
0.1212 
0.1212 
0.1212 
0.1212 
0.1212 
0.1212 
0.1212 
0.1212 
0.1212 
0.1212 
0.1212 
0.1212 
0.1213 
0.1213 
0.1212 
0.1212 
0.1212 
0.1212 
0.1212 
0.1212 
0.1212 
0.1213 
0.1213 
SCALARS Sw_DAY=730 double 1
LOOKUP_TABLE default
0.6917 
0.6573 
0.5795 
0.3533 
0.1637 
0.1223 
0.1211 
0.1211 
0.1211 
0.6573 
0.6079 
0.4683 
0.194 
0.1268 
0.1212 
0.1211 
0.1211 
0.1211 
0.5797 
0.4685 
0.2265 
0.1267 
0.1213 
0.1211 
0.1211 
0.1211 
0.1211 
0.354 
0.1944 
0.1268 
0.1212 
0.1211 
0.1211 
0.1211 
0.1211 
0.1211 
0.1642 
0.1269 
0.1213 
0.1211 
0.121 
0.1211 
0.1211 
0.1211 
0.1211 
0.1222 
0.1212 
0.1211 
0.1211 
0.1211 
0.1211 
0.1211 
0.1211 
0.1211 
0.1211 
0.1211 
0.1211 
0.1211 
0.1211 
0.1211 
0.1211 
0.1211 
0.1211 