# vtk DataFile Version 3.0
MOAB 5.4.1
ASCII
DATASET UNSTRUCTURED_GRID
POINTS 200 double
0 0 0
160 0 0
320 0 0
480 0 0
640 0 0
720 0 0
880 0 0
1040 0 0
1200 0 0
1360 0 0
0 160 0
160 160 0
320 160 0
480 160 0
640 160 0
720 160 0
880 160 0
1040 160 0
1200 160 0
1360 160 0
0 320 0
160 320 0
320 320 0
480 320 0
640 320 0
720 320 0
880 320 0
1040 320 0
1200 320 0
1360 320 0
0 480 0
160 480 0
320 480 0
480 480 0
640 480 0
720 480 0
880 480 0
1040 480 0
1200 480 0
1360 480 0
0 640 0
160 640 0
320 640 0
480 640 0
640 640 0
720 640 0
880 640 0
1040 640 0
1200 640 0
1360 640 0
0 720 0
160 720 0
320 720 0
480 720 0
640 720 0
720 720 0
880 720 0
1040 720 0
1200 720 0
1360 720 0
0 880 0
160 880 0
320 880 0
480 880 0
640 880 0
720 880 0
880 880 0
1040 880 0
1200 880 0
1360 880 0
0 1040 0
160 1040 0
320 1040 0
480 1040 0
640 1040 0
720 1040 0
880 1040 0
1040 1040 0
1200 1040 0
1360 1040 0
0 1200 0
160 1200 0
320 1200 0
480 1200 0
640 1200 0
720 1200 0
880 1200 0
1040 1200 0
1200 1200 0
1360 1200 0
0 1360 0
160 1360 0
320 1360 0
480 1360 0
640 1360 0
720 1360 0
880 1360 0
1040 1360 0
1200 1360 0
1360 1360 0
0 0 -30
160 0 -30
320 0 -30
480 0 -30
640 0 -30
720 0 -30
880 0 -30
1040 0 -30
1200 0 -30
1360 0 -30
0 160 -30
160 160 -30
320 160 -30
480 160 -30
640 160 -30
720 160 -30
880 160 -30
1040 160 -30
1200 160 -30
1360 160 -30
0 320 -30
160 320 -30
320 320 -30
480 320 -30
640 320 -30
720 320 -30
880 320 -30
1040 320 -30
1200 320 -30
1360 320 -30
0 480 -30
160 480 -30
320 480 -30
480 480 -30
640 480 -30
720 480 -30
880 480 -30
1040 480 -30
1200 480 -30
1360 480 -30
0 640 -30
160 640 -30
320 640 -30
480 640 -30
640 640 -30
720 640 -30
880 640 -30
1040 640 -30
1200 640 -30
1360 640 -30
0 720 -30
160 720 -30
320 720 -30
480 720 -30
640 720 -30
720 720 -30
880 720 -30
1040 720 -30
1200 720 -30
1360 720 -30
0 880 -30
160 880 -30
320 880 -30
480 880 -30
640 880 -30
720 880 -30
880 880 -30
1040 880 -30
1200 880 -30
1360 880 -30
0 1040 -30
160 1040 -30
320 1040 -30
480 1040 -30
640 1040 -30
720 1040 -30
880 1040 -30
1040 1040 -30
1200 1040 -30
1360 1040 -30
0 1200 -30
160 1200 -30
320 1200 -30
480 1200 -30
640 1200 -30
720 1200 -30
880 1200 -30
1040 1200 -30
1200 1200 -30
1360 1200 -30
0 1360 -30
160 1360 -30
320 1360 -30
480 1360 -30
640 1360 -30
720 1360 -30
880 1360 -30
1040 1360 -30
1200 1360 -30
1360 1360 -30
CELLS 81 729
8 0 1 11 10 100 101 111 110
8 10 11 21 20 110 111 121 120
8 20 21 31 30 120 121 131 130
8 30 31 41 40 130 131 141 140
8 40 41 51 50 140 141 151 150
8 50 51 61 60 150 151 161 160
8 60 61 71 70 160 161 171 170
8 70 71 81 80 170 171 181 180
8 80 81 91 90 180 181 191 190
8 1 2 12 11 101 102 112 111
8 11 12 22 21 111 112 122 121
8 21 22 32 31 121 122 132 131
8 31 32 42 41 131 132 142 141
8 41 42 52 51 141 142 152 151
8 51 52 62 61 151 152 162 161
8 61 62 72 71 161 162 172 171
8 71 72 82 81 171 172 182 181
8 81 82 92 91 181 182 192 191
8 2 3 13 12 102 103 113 112
8 12 13 23 22 112 113 123 122
8 22 23 33 32 122 123 133 132
8 32 33 43 42 132 133 143 142
8 42 43 53 52 142 143 153 152
8 52 53 63 62 152 153 163 162
8 62 63 73 72 162 163 173 172
8 72 73 83 82 172 173 183 182
8 82 83 93 92 182 183 193 192
8 3 4 14 13 103 104 114 113
8 13 14 24 23 113 114 124 123
8 23 24 34 33 123 124 134 133
8 33 34 44 43 133 134 144 143
8 43 44 54 53 143 144 154 153
8 53 54 64 63 153 154 164 163
8 63 64 74 73 163 164 174 173
8 73 74 84 83 173 174 184 183
8 83 84 94 93 183 184 194 193
8 4 5 15 14 104 105 115 114
8 14 15 25 24 114 115 125 124
8 24 25 35 34 124 125 135 134
8 34 35 45 44 134 135 145 144
8 44 45 55 54 144 145 155 154
8 54 55 65 64 154 155 165 164
8 64 65 75 74 164 165 175 174
8 74 75 85 84 174 175 185 184
8 84 85 95 94 184 185 195 194
8 5 6 16 15 105 106 116 115
8 15 16 26 25 115 116 126 125
8 25 26 36 35 125 126 136 135
8 35 36 46 45 135 136 146 145
8 45 46 56 55 145 146 156 155
8 55 56 66 65 155 156 166 165
8 65 66 76 75 165 166 176 175
8 75 76 86 85 175 176 186 185
8 85 86 96 95 185 186 196 195
8 6 7 17 16 106 107 117 116
8 16 17 27 26 116 117 127 126
8 26 27 37 36 126 127 137 136
8 36 37 47 46 136 137 147 146
8 46 47 57 56 146 147 157 156
8 56 57 67 66 156 157 167 166
8 66 67 77 76 166 167 177 176
8 76 77 87 86 176 177 187 186
8 86 87 97 96 186 187 197 196
8 7 8 18 17 107 108 118 117
8 17 18 28 27 117 118 128 127
8 27 28 38 37 127 128 138 137
8 37 38 48 47 137 138 148 147
8 47 48 58 57 147 148 158 157
8 57 58 68 67 157 158 168 167
8 67 68 78 77 167 168 178 177
8 77 78 88 87 177 178 188 187
8 87 88 98 97 187 188 198 197
8 8 9 19 18 108 109 119 118
8 18 19 29 28 118 119 129 128
8 28 29 39 38 128 129 139 138
8 38 39 49 48 138 139 149 148
8 48 49 59 58 148 149 159 158
8 58 59 69 68 158 159 169 168
8 68 69 79 78 168 169 179 178
8 78 79 89 88 178 179 189 188
8 88 89 99 98 188 189 199 198
CELL_TYPES 81
12
12
12
12
12
12
12
12
12
12
12
12
12
12
12
12
12
12
12
12
12
12
12
12
12
12
12
12
12
12
12
12
12
12
12
12
12
12
12
12
12
12
12
12
12
12
12
12
12
12
12
12
12
12
12
12
12
12
12
12
12
12
12
12
12
12
12
12
12
12
12
12
12
12
12
12
12
12
12
12
12
POINT_DATA 200
SCALARS GLOBAL_ID int 1
LOOKUP_TABLE default
-1 
-1 
-1 
-1 
-1 
-1 
-1 
-1 
-1 
-1 
-1 
-1 
-1 
-1 
-1 
-1 
-1 
-1 
-1 
-1 
-1 
-1 
-1 
-1 
-1 
-1 
-1 
-1 
-1 
-1 
-1 
-1 
-1 
-1 
-1 
-1 
-1 
-1 
-1 
-1 
-1 
-1 
-1 
-1 
-1 
-1 
-1 
-1 
-1 
-1 
-1 
-1 
-1 
-1 
-1 
-1 
-1 
-1 
-1 
-1 
-1 
-1 
-1 
-1 
-1 
-1 
-1 
-1 
-1 
-1 
-1 
-1 
-1 
-1 
-1 
-1 
-1 
-1 
-1 
-1 
-1 
-1 
-1 
-1 
-1 
-1 
-1 
-1 
-1 
-1 
-1 
-1 
-1 
-1 
-1 
-1 
-1 
-1 
-1 
-1 
-1 
-1 
-1 
-1 
-1 
-1 
-1 
-1 
-1 
-1 
-1 
-1 
-1 
-1 
-1 
-1 
-1 
-1 
-1 
-1 
-1 
-1 
-1 
-1 
-1 
-1 
-1 
-1 
-1 
-1 
-1 
-1 
-1 
-1 
-1 
-1 
-1 
-1 
-1 
-1 
-1 
-1 
-1 
-1 
-1 
-1 
-1 
-1 
-1 
-1 
-1 
-1 
-1 
-1 
-1 
-1 
-1 
-1 
-1 
-1 
-1 
-1 
-1 
-1 
-1 
-1 
-1 
-1 
-1 
-1 
-1 
-1 
-1 
-1 
-1 
-1 
-1 
-1 
-1 
-1 
-1 
-1 
-1 
-1 
-1 
-1 
-1 
-1 
-1 
-1 
-1 
-1 
-1 
-1 
-1 
-1 
-1 
-1 
-1 
-1 
CELL_DATA 81
SCALARS GLOBAL_ID int 1
LOOKUP_TABLE default
-1 
-1 
-1 
-1 
-1 
-1 
-1 
-1 
-1 
-1 
-1 
-1 
-1 
-1 
-1 
-1 
-1 
-1 
-1 
-1 
-1 
-1 
-1 
-1 
-1 
-1 
-1 
-1 
-1 
-1 
-1 
-1 
-1 
-1 
-1 
-1 
-1 
-1 
-1 
-1 
-1 
-1 
-1 
-1 
-1 
-1 
-1 
-1 
-1 
-1 
-1 
-1 
-1 
-1 
-1 
-1 
-1 
-1 
-1 
-1 
-1 
-1 
-1 
-1 
-1 
-1 
-1 
-1 
-1 
-1 
-1 
-1 
-1 
-1 
-1 
-1 
-1 
-1 
-1 
-1 
-1 
SCALARS id int 1
LOOKUP_TABLE default
0 
1 
2 
3 
4 
5 
6 
7 
8 
9 
10 
11 
12 
13 
14 
15 
16 
17 
18 
19 
20 
21 
22 
23 
24 
25 
26 
27 
28 
29 
30 
31 
32 
33 
34 
35 
36 
37 
38 
39 
40 
41 
42 
43 
44 
45 
46 
47 
48 
49 
50 
51 
52 
53 
54 
55 
56 
57 
58 
59 
60 
61 
62 
63 
64 
65 
66 
67 
68 
69 
70 
71 
72 
73 
74 
75 
76 
77 
78 
79 
80 
SCALARS permeability double 1
LOOKUP_TABLE default
100 
100 
100 
100 
100 
100 
100 
100 
100 
100 
100 
100 
100 
100 
100 
100 
100 
100 
100 
100 
100 
100 
100 
100 
100 
100 
100 
100 
100 
100 
100 
100 
100 
100 
100 
100 
100 
100 
100 
100 
100 
100 
100 
100 
100 
100 
100 
100 
100 
100 
100 
100 
100 
100 
100 
100 
100 
100 
100 
100 
100 
100 
100 
100 
100 
100 
100 
100 
100 
100 
100 
100 
100 
100 
100 
100 
100 
100 
100 
100 
100 
SCALARS porosity double 1
LOOKUP_TABLE default
0.28 
0.28 
0.28 
0.28 
0.28 
0.28 
0.28 
0.28 
0.28 
0.28 
0.28 
0.28 
0.28 
0.28 
0.28 
0.28 
0.28 
0.28 
0.28 
0.28 
0.28 
0.28 
0.28 
0.28 
0.28 
0.28 
0.28 
0.28 
0.28 
0.28 
0.28 
0.28 
0.28 
0.28 
0.28 
0.28 
0.28 
0.28 
0.28 
0.28 
0.28 
0.28 
0.28 
0.28 
0.28 
0.3 
0.3 
0.3 
0.3 
0.3 
0.3 
0.3 
0.3 
0.3 
0.3 
0.3 
0.3 
0.3 
0.3 
0.3 
0.3 
0.3 
0.3 
0.3 
0.3 
0.3 
0.3 
0.3 
0.3 
0.3 
0.3 
0.3 
0.3 
0.3 
0.3 
0.3 
0.3 
0.3 
0.3 
0.3 
0.3 
SCALARS P_DAY=0 double 1
LOOKUP_TABLE default
5382 
5382 
5382 
5382 
5382 
5382 
5382 
5382 
5382 
5382 
5382 
5382 
5382 
5382 
5382 
5382 
5382 
5382 
5382 
5382 
5382 
5382 
5382 
5382 
5382 
5382 
5382 
5382 
5382 
5382 
5382 
5382 
5382 
5382 
5382 
5382 
5382 
5382 
5382 
5382 
5382 
5382 
5382 
5382 
5382 
5382 
5382 
5382 
5382 
5382 
5382 
5382 
5382 
5382 
5382 
5382 
5382 
5382 
5382 
5382 
5382 
5382 
5382 
5382 
5382 
5382 
5382 
5382 
5382 
5382 
5382 
5382 
5382 
5382 
5382 
5382 
5382 
5382 
5382 
5382 
5382 
SCALARS P_DAY=365 double 1
LOOKUP_TABLE default
2086 
2085 
2083 
2081 
2078 
2076 
2073 
2071 
2070 
2085 
2084 
2082 
2079 
2077 
2074 
2071 
2068 
2067 
2083 
2082 
2080 
2076 
2073 
2070 
2065 
2062 
2060 
2081 
2079 
2076 
2072 
2068 
2063 
2058 
2053 
2050 
2079 
2077 
2073 
2068 
2063 
2057 
2050 
2043 
2038 
2077 
2075 
2070 
2064 
2058 
2051 
2040 
2031 
2024 
2074 
2072 
2066 
2058 
2050 
2041 
2026 
2010 
1998 
2072 
2069 
2063 
2053 
2043 
2031 
2010 
1984 
1955 
2071 
2068 
2061 
2051 
2039 
2025 
1998 
1955 
1881 
SCALARS P_DAY=730 double 1
LOOKUP_TABLE default
2961 
2876 
2815 
2770 
2760 
2753 
2747 
2742 
2740 
2875 
2835 
2789 
2765 
2758 
2751 
2745 
2741 
2739 
2815 
2789 
2770 
2759 
2753 
2748 
2742 
2739 
2737 
2770 
2765 
2759 
2752 
2748 
2743 
2738 
2735 
2733 
2759 
2757 
2753 
2748 
2743 
2740 
2735 
2732 
2730 
2753 
2751 
2747 
2743 
2739 
2736 
2732 
2728 
2726 
2746 
2745 
2742 
2738 
2735 
2731 
2727 
2723 
2720 
2742 
2741 
2738 
2735 
2731 
2728 
2723 
2717 
2711 
2740 
2739 
2736 
2733 
2730 
2726 
2720 
2711 
2698 
SCALARS P_DAY=1095 double 1
LOOKUP_TABLE default
3800 
3718 
3665 
3622 
3595 
3579 
3572 
3567 
3565 
3718 
3683 
3645 
3607 
3586 
3577 
3570 
3565 
3563 
3665 
3645 
3617 
3588 
3579 
3572 
3566 
3561 
3559 
3621 
3607 
3588 
3578 
3572 
3566 
3560 
3556 
3553 
3595 
3586 
3579 
3572 
3566 
3561 
3555 
3550 
3547 
3579 
3577 
3572 
3566 
3561 
3556 
3550 
3544 
3541 
3571 
3569 
3565 
3560 
3555 
3550 
3542 
3534 
3529 
3567 
3565 
3561 
3555 
3550 
3544 
3534 
3523 
3512 
3564 
3562 
3559 
3553 
3547 
3541 
3529 
3512 
3485 
SCALARS P_DAY=1460 double 1
LOOKUP_TABLE default
4656 
4577 
4526 
4488 
4463 
4440 
4423 
4418 
4416 
4577 
4544 
4509 
4476 
4453 
4432 
4421 
4416 
4414 
4526 
4509 
4484 
4456 
4437 
4424 
4417 
4412 
4410 
4488 
4476 
4456 
4433 
4424 
4417 
4411 
4406 
4403 
4462 
4453 
4437 
4423 
4417 
4412 
4405 
4400 
4397 
4439 
4432 
4424 
4417 
4412 
4407 
4400 
4394 
4390 
4423 
4421 
4417 
4411 
4405 
4400 
4391 
4384 
4378 
4418 
4416 
4412 
4406 
4400 
4394 
4384 
4372 
4360 
4415 
4413 
4409 
4403 
4397 
4390 
4378 
4360 
4331 
SCALARS P_DAY=1825 double 1
LOOKUP_TABLE default
4721 
4643 
4592 
4555 
4532 
4509 
4484 
4475 
4472 
4643 
4609 
4576 
4544 
4522 
4501 
4479 
4472 
4469 
4592 
4575 
4552 
4526 
4506 
4486 
4472 
4466 
4463 
4555 
4544 
4525 
4503 
4485 
4471 
4463 
4458 
4455 
4531 
4522 
4505 
4485 
4472 
4464 
4456 
4450 
4446 
4509 
4501 
4485 
4471 
4464 
4458 
4449 
4441 
4436 
4483 
4478 
4472 
4463 
4456 
4449 
4438 
4427 
4419 
4475 
4472 
4466 
4458 
4450 
4441 
4427 
4410 
4392 
4472 
4469 
4463 
4455 
4446 
4437 
4419 
4392 
4349 
SCALARS P_DAY=2190 double 1
LOOKUP_TABLE default
4779 
4701 
4650 
4615 
4593 
4572 
4548 
4531 
4527 
4701 
4668 
4634 
4605 
4584 
4564 
4541 
4527 
4524 
4650 
4634 
4612 
4588 
4569 
4551 
4529 
4520 
4517 
4614 
4604 
4588 
4566 
4550 
4532 
4517 
4511 
4509 
4592 
4584 
4569 
4550 
4534 
4519 
4509 
4503 
4500 
4571 
4564 
4550 
4532 
4519 
4510 
4502 
4494 
4490 
4547 
4540 
4528 
4517 
4509 
4502 
4491 
4480 
4472 
4531 
4527 
4520 
4512 
4503 
4494 
4480 
4463 
4445 
4527 
4524 
4518 
4509 
4500 
4490 
4472 
4445 
4402 
SCALARS P_DAY=2555 double 1
LOOKUP_TABLE default
4839 
4761 
4710 
4675 
4654 
4635 
4612 
4593 
4586 
4761 
4728 
4694 
4666 
4646 
4628 
4605 
4587 
4582 
4710 
4694 
4673 
4650 
4632 
4615 
4594 
4578 
4575 
4675 
4665 
4650 
4630 
4614 
4598 
4577 
4567 
4565 
4654 
4646 
4632 
4614 
4598 
4583 
4565 
4558 
4555 
4634 
4627 
4614 
4597 
4583 
4567 
4556 
4549 
4545 
4611 
4605 
4592 
4576 
4565 
4556 
4545 
4534 
4526 
4592 
4587 
4578 
4568 
4559 
4549 
4534 
4517 
4500 
4586 
4582 
4575 
4565 
4555 
4545 
4526 
4500 
4456 
SCALARS P_DAY=2920 double 1
LOOKUP_TABLE default
4901 
4823 
4773 
4738 
4718 
4699 
4678 
4660 
4649 
4823 
4790 
4757 
4729 
4710 
4693 
4671 
4653 
4644 
4773 
4757 
4736 
4713 
4697 
4680 
4660 
4642 
4636 
4738 
4728 
4713 
4694 
4679 
4664 
4644 
4627 
4624 
4717 
4710 
4696 
4679 
4664 
4649 
4629 
4616 
4613 
4699 
4692 
4680 
4663 
4649 
4634 
4614 
4605 
4601 
4677 
4671 
4659 
4643 
4628 
4614 
4600 
4590 
4582 
4658 
4652 
4641 
4627 
4616 
4605 
4590 
4573 
4556 
4648 
4644 
4635 
4624 
4613 
4602 
4582 
4556 
4512 
SCALARS P_DAY=3285 double 1
LOOKUP_TABLE default
4966 
4888 
4838 
4804 
4784 
4766 
4746 
4730 
4718 
4888 
4856 
4822 
4794 
4776 
4760 
4740 
4724 
4712 
4838 
4822 
4801 
4779 
4763 
4748 
4728 
4712 
4701 
4803 
4794 
4779 
4761 
4746 
4731 
4712 
4694 
4687 
4784 
4776 
4763 
4746 
4732 
4717 
4697 
4679 
4674 
4766 
4759 
4747 
4731 
4717 
4702 
4681 
4664 
4661 
4745 
4739 
4727 
4711 
4696 
4680 
4659 
4647 
4640 
4728 
4722 
4710 
4693 
4678 
4665 
4647 
4630 
4613 
4716 
4710 
4700 
4686 
4674 
4661 
4640 
4613 
4569 
SCALARS P_DAY=3650 double 1
LOOKUP_TABLE default
5035 
4957 
4908 
4873 
4854 
4837 
4818 
4803 
4793 
4957 
4925 
4892 
4864 
4846 
4830 
4812 
4797 
4786 
4908 
4892 
4870 
4849 
4833 
4818 
4800 
4784 
4773 
4873 
4864 
4849 
4831 
4817 
4802 
4783 
4767 
4754 
4853 
4846 
4833 
4816 
4802 
4788 
4768 
4750 
4738 
4836 
4830 
4818 
4802 
4787 
4772 
4752 
4731 
4722 
4817 
4811 
4799 
4782 
4767 
4751 
4727 
4705 
4698 
4801 
4795 
4783 
4765 
4748 
4730 
4706 
4685 
4669 
4790 
4783 
4771 
4753 
4738 
4722 
4698 
4669 
4625 
SCALARS P_DAY=4015 double 1
LOOKUP_TABLE default
5108 
5031 
4981 
4947 
4928 
4912 
4894 
4881 
4873 
5031 
4998 
4966 
4938 
4921 
4905 
4888 
4874 
4865 
4981 
4965 
4944 
4923 
4907 
4893 
4876 
4861 
4851 
4947 
4937 
4922 
4905 
4891 
4877 
4858 
4843 
4830 
4928 
4920 
4907 
4890 
4876 
4862 
4842 
4824 
4810 
4911 
4904 
4892 
4876 
4862 
4846 
4825 
4805 
4788 
4893 
4887 
4874 
4857 
4842 
4825 
4799 
4773 
4756 
4879 
4872 
4859 
4841 
4823 
4804 
4773 
4741 
4720 
4870 
4862 
4848 
4828 
4809 
4788 
4756 
4721 
4674 
SCALARS P_DAY=4380 double 1
LOOKUP_TABLE default
5187 
5110 
5060 
5026 
5008 
4992 
4975 
4963 
4956 
5110 
5077 
5045 
5017 
5000 
4985 
4969 
4956 
4949 
5060 
5044 
5023 
5002 
4987 
4973 
4956 
4943 
4935 
5026 
5017 
5002 
4984 
4970 
4956 
4939 
4924 
4914 
5007 
5000 
4986 
4970 
4956 
4941 
4922 
4904 
4893 
4991 
4984 
4972 
4956 
4941 
4925 
4903 
4883 
4867 
4974 
4968 
4955 
4938 
4921 
4902 
4875 
4847 
4823 
4962 
4955 
4942 
4922 
4903 
4881 
4846 
4806 
4765 
4954 
4947 
4933 
4912 
4890 
4865 
4821 
4765 
4694 
SCALARS P_DAY=4745 double 1
LOOKUP_TABLE default
4655 
4576 
4525 
4490 
4471 
4455 
4439 
4427 
4420 
4576 
4543 
4509 
4481 
4463 
4448 
4432 
4420 
4413 
4525 
4509 
4487 
4465 
4449 
4435 
4418 
4405 
4398 
4491 
4481 
4465 
4446 
4431 
4417 
4398 
4383 
4374 
4471 
4463 
4449 
4431 
4416 
4400 
4379 
4361 
4350 
4455 
4448 
4435 
4417 
4400 
4383 
4358 
4335 
4320 
4439 
4432 
4418 
4398 
4379 
4358 
4325 
4291 
4265 
4427 
4420 
4405 
4383 
4361 
4335 
4291 
4238 
4183 
4420 
4413 
4397 
4374 
4349 
4320 
4265 
4183 
4044 
SCALARS P_DAY=5110 double 1
LOOKUP_TABLE default
4086 
4005 
3954 
3919 
3900 
3883 
3867 
3856 
3849 
4005 
3972 
3938 
3909 
3892 
3876 
3860 
3848 
3842 
3954 
3938 
3915 
3893 
3878 
3863 
3847 
3834 
3827 
3919 
3909 
3893 
3874 
3860 
3845 
3827 
3813 
3804 
3900 
3892 
3878 
3860 
3845 
3829 
3808 
3790 
3780 
3884 
3877 
3863 
3845 
3829 
3812 
3787 
3765 
3751 
3867 
3860 
3847 
3827 
3808 
3787 
3755 
3721 
3696 
3856 
3849 
3834 
3813 
3790 
3765 
3722 
3668 
3615 
3849 
3842 
3827 
3804 
3780 
3751 
3696 
3615 
3476 
SCALARS P_DAY=5475 double 1
LOOKUP_TABLE default
3503 
3419 
3368 
3333 
3313 
3297 
3281 
3270 
3263 
3419 
3386 
3352 
3323 
3305 
3290 
3274 
3262 
3256 
3368 
3352 
3329 
3307 
3291 
3277 
3261 
3248 
3241 
3333 
3323 
3307 
3288 
3273 
3259 
3241 
3227 
3219 
3314 
3306 
3291 
3273 
3258 
3243 
3223 
3205 
3195 
3297 
3290 
3277 
3259 
3243 
3226 
3202 
3180 
3166 
3281 
3274 
3261 
3242 
3223 
3202 
3170 
3137 
3112 
3270 
3263 
3249 
3227 
3205 
3180 
3137 
3085 
3032 
3264 
3256 
3242 
3219 
3195 
3166 
3113 
3032 
2897 
SCALARS P_DAY=5840 double 1
LOOKUP_TABLE default
2912 
2827 
2776 
2741 
2721 
2705 
2689 
2678 
2671 
2827 
2794 
2760 
2731 
2713 
2698 
2682 
2671 
2664 
2776 
2760 
2737 
2715 
2699 
2685 
2669 
2657 
2650 
2741 
2731 
2715 
2696 
2681 
2667 
2650 
2636 
2628 
2722 
2713 
2699 
2681 
2666 
2651 
2632 
2615 
2604 
2705 
2698 
2685 
2667 
2651 
2635 
2612 
2590 
2576 
2689 
2682 
2669 
2650 
2632 
2612 
2581 
2548 
2524 
2678 
2671 
2657 
2636 
2615 
2590 
2548 
2497 
2446 
2672 
2665 
2650 
2628 
2605 
2577 
2524 
2446 
2314 
SCALARS So_DAY=0 double 1
LOOKUP_TABLE default
0.88 
0.88 
0.88 
0.88 
0.88 
0.88 
0.88 
0.88 
0.88 
0.88 
0.88 
0.88 
0.88 
0.88 
0.88 
0.88 
0.88 
0.88 
0.88 
0.88 
0.88 
0.88 
0.88 
0.88 
0.88 
0.88 
0.88 
0.88 
0.88 
0.88 
0.88 
0.88 
0.88 
0.88 
0.88 
0.88 
0.88 
0.88 
0.88 
0.88 
0.88 
0.88 
0.88 
0.88 
0.88 
0.88 
0.88 
0.88 
0.88 
0.88 
0.88 
0.88 
0.88 
0.88 
0.88 
0.88 
0.88 
0.88 
0.88 
0.88 
0.88 
0.88 
0.88 
0.88 
0.88 
0.88 
0.88 
0.88 
0.88 
0.88 
0.88 
0.88 
0.88 
0.88 
0.88 
0.88 
0.88 
0.88 
0.88 
0.88 
0.88 
SCALARS So_DAY=365 double 1
LOOKUP_TABLE default
0.826 
0.8259 
0.8256 
0.8253 
0.8251 
0.8248 
0.8244 
0.8241 
0.8239 
0.8259 
0.8257 
0.8255 
0.8252 
0.8249 
0.8245 
0.8242 
0.8238 
0.8236 
0.8257 
0.8255 
0.8252 
0.8249 
0.8246 
0.8241 
0.8237 
0.8233 
0.823 
0.8254 
0.8252 
0.8249 
0.8244 
0.8241 
0.8235 
0.823 
0.8225 
0.8221 
0.8252 
0.825 
0.8246 
0.8241 
0.8237 
0.8231 
0.8225 
0.822 
0.8216 
0.8249 
0.8246 
0.8242 
0.8236 
0.8231 
0.8224 
0.8216 
0.8209 
0.8203 
0.8245 
0.8243 
0.8238 
0.823 
0.8225 
0.8216 
0.8207 
0.8196 
0.8183 
0.8243 
0.8239 
0.8234 
0.8225 
0.822 
0.8209 
0.8196 
0.8175 
0.8157 
0.8241 
0.8238 
0.8231 
0.8222 
0.8217 
0.8204 
0.8183 
0.8158 
0.8129 
SCALARS So_DAY=730 double 1
LOOKUP_TABLE default
0.3082 
0.372 
0.5224 
0.8052 
0.874 
0.879 
0.8791 
0.8791 
0.8791 
0.3719 
0.4687 
0.7219 
0.8694 
0.8786 
0.8791 
0.8791 
0.8791 
0.8791 
0.5222 
0.7217 
0.8654 
0.8787 
0.879 
0.8791 
0.8791 
0.8791 
0.8791 
0.8049 
0.8694 
0.8787 
0.8791 
0.8791 
0.8791 
0.8791 
0.8791 
0.8791 
0.8739 
0.8786 
0.879 
0.8791 
0.8791 
0.8791 
0.8791 
0.8791 
0.8791 
0.879 
0.8791 
0.8791 
0.8791 
0.8791 
0.8791 
0.8791 
0.8791 
0.8791 
0.8791 
0.8791 
0.8791 
0.8791 
0.8791 
0.8791 
0.8791 
0.8791 
0.8791 
0.8791 
0.8791 
0.8791 
0.8791 
0.8791 
0.8791 
0.8791 
0.8791 
0.8791 
0.8791 
0.8791 
0.8791 
0.8791 
0.8791 
0.8791 
0.8791 
0.8791 
0.8791 
SCALARS So_DAY=1095 double 1
LOOKUP_TABLE default
0.2982 
0.3169 
0.3793 
0.5021 
0.6713 
0.863 
0.8789 
0.8793 
0.8793 
0.3168 
0.3606 
0.435 
0.626 
0.8155 
0.8766 
0.8793 
0.8793 
0.8793 
0.3793 
0.4349 
0.5756 
0.8155 
0.8731 
0.8792 
0.8793 
0.8793 
0.8793 
0.5017 
0.6256 
0.8154 
0.8751 
0.879 
0.8793 
0.8793 
0.8793 
0.8793 
0.6704 
0.8151 
0.873 
0.879 
0.8793 
0.8793 
0.8793 
0.8793 
0.8793 
0.8639 
0.8768 
0.8792 
0.8793 
0.8793 
0.8793 
0.8793 
0.8793 
0.8793 
0.879 
0.8793 
0.8793 
0.8793 
0.8793 
0.8793 
0.8793 
0.8793 
0.8793 
0.8793 
0.8793 
0.8793 
0.8793 
0.8793 
0.8793 
0.8793 
0.8793 
0.8793 
0.8793 
0.8793 
0.8793 
0.8793 
0.8793 
0.8793 
0.8793 
0.8793 
0.8793 
SCALARS So_DAY=1460 double 1
LOOKUP_TABLE default
0.2933 
0.3022 
0.3355 
0.4027 
0.4517 
0.6884 
0.864 
0.8793 
0.8796 
0.3022 
0.3232 
0.3714 
0.448 
0.5263 
0.7939 
0.8756 
0.8796 
0.8797 
0.3355 
0.3714 
0.4248 
0.5523 
0.7148 
0.8663 
0.8792 
0.8796 
0.8797 
0.4025 
0.4478 
0.5521 
0.7684 
0.8601 
0.8787 
0.8796 
0.8796 
0.8796 
0.4511 
0.5257 
0.7143 
0.8601 
0.8775 
0.8796 
0.8796 
0.8796 
0.8796 
0.6975 
0.7989 
0.8673 
0.8788 
0.8796 
0.8796 
0.8796 
0.8796 
0.8796 
0.866 
0.8761 
0.8793 
0.8796 
0.8796 
0.8796 
0.8796 
0.8796 
0.8796 
0.8793 
0.8796 
0.8796 
0.8796 
0.8796 
0.8796 
0.8796 
0.8796 
0.8796 
0.8796 
0.8797 
0.8797 
0.8796 
0.8796 
0.8796 
0.8796 
0.8796 
0.8796 
SCALARS So_DAY=1825 double 1
LOOKUP_TABLE default
0.2929 
0.3005 
0.3178 
0.3663 
0.3954 
0.5129 
0.7597 
0.8728 
0.8796 
0.3005 
0.3098 
0.3424 
0.3945 
0.4229 
0.5803 
0.8218 
0.8774 
0.8796 
0.3177 
0.3423 
0.3822 
0.4385 
0.4875 
0.7165 
0.8658 
0.8793 
0.8797 
0.3661 
0.3943 
0.4385 
0.5374 
0.6538 
0.8476 
0.8781 
0.8796 
0.8797 
0.3951 
0.4226 
0.4873 
0.654 
0.8064 
0.8741 
0.8794 
0.8797 
0.8797 
0.5227 
0.5924 
0.728 
0.8506 
0.8747 
0.8793 
0.8796 
0.8797 
0.8797 
0.774 
0.8299 
0.868 
0.8783 
0.8794 
0.8797 
0.8797 
0.8797 
0.8797 
0.8742 
0.8778 
0.8793 
0.8796 
0.8797 
0.8797 
0.8797 
0.8797 
0.8797 
0.8796 
0.8796 
0.8797 
0.8797 
0.8797 
0.8797 
0.8797 
0.8797 
0.8797 
SCALARS So_DAY=2190 double 1
LOOKUP_TABLE default
0.2926 
0.2999 
0.3088 
0.3434 
0.368 
0.4381 
0.6018 
0.8333 
0.8784 
0.2999 
0.3039 
0.3248 
0.3665 
0.3896 
0.4697 
0.6703 
0.8575 
0.8792 
0.3088 
0.3248 
0.3562 
0.3976 
0.4184 
0.5335 
0.7746 
0.8734 
0.8796 
0.3432 
0.3663 
0.3975 
0.4448 
0.4829 
0.6714 
0.8536 
0.8786 
0.8797 
0.3677 
0.3894 
0.4181 
0.4828 
0.546 
0.7876 
0.8728 
0.8794 
0.8797 
0.4447 
0.4781 
0.5458 
0.6866 
0.7967 
0.8704 
0.8791 
0.8797 
0.8797 
0.6221 
0.6921 
0.7904 
0.8584 
0.8741 
0.8791 
0.8796 
0.8797 
0.8797 
0.8429 
0.8625 
0.8749 
0.8789 
0.8795 
0.8797 
0.8797 
0.8797 
0.8797 
0.8788 
0.8793 
0.8796 
0.8797 
0.8797 
0.8797 
0.8797 
0.8797 
0.8797 
SCALARS So_DAY=2555 double 1
LOOKUP_TABLE default
0.2922 
0.2996 
0.3043 
0.3283 
0.3482 
0.4022 
0.5018 
0.7321 
0.8711 
0.2996 
0.3014 
0.3142 
0.3467 
0.3674 
0.4206 
0.5393 
0.7822 
0.8756 
0.3043 
0.3142 
0.3381 
0.374 
0.392 
0.4531 
0.6115 
0.8362 
0.8785 
0.3282 
0.3465 
0.3738 
0.4059 
0.4238 
0.5167 
0.735 
0.8681 
0.8794 
0.348 
0.3672 
0.3918 
0.4236 
0.4473 
0.5731 
0.8098 
0.8756 
0.8796 
0.4065 
0.4262 
0.4609 
0.5288 
0.5901 
0.7839 
0.8694 
0.8791 
0.8797 
0.517 
0.5582 
0.6364 
0.7579 
0.8232 
0.8705 
0.8787 
0.8796 
0.8797 
0.7559 
0.8013 
0.8468 
0.8712 
0.8767 
0.8792 
0.8796 
0.8797 
0.8797 
0.8735 
0.8768 
0.8789 
0.8795 
0.8796 
0.8797 
0.8797 
0.8797 
0.8797 
SCALARS So_DAY=2920 double 1
LOOKUP_TABLE default
0.2919 
0.2992 
0.302 
0.3184 
0.3338 
0.3804 
0.448 
0.6167 
0.8441 
0.2992 
0.3004 
0.3079 
0.3324 
0.3501 
0.3951 
0.4695 
0.6621 
0.8588 
0.3019 
0.3078 
0.3253 
0.3557 
0.3729 
0.4148 
0.5068 
0.7328 
0.8713 
0.3183 
0.3323 
0.3556 
0.385 
0.3982 
0.4485 
0.5762 
0.8112 
0.8774 
0.3336 
0.3499 
0.3727 
0.3981 
0.4091 
0.4706 
0.6342 
0.8457 
0.8787 
0.3839 
0.3987 
0.4198 
0.4562 
0.4804 
0.5968 
0.7996 
0.873 
0.8795 
0.4587 
0.4825 
0.5241 
0.6014 
0.6664 
0.8073 
0.868 
0.8785 
0.8797 
0.644 
0.6915 
0.7608 
0.8285 
0.8556 
0.8743 
0.8786 
0.8795 
0.8797 
0.8538 
0.865 
0.874 
0.8782 
0.8791 
0.8795 
0.8797 
0.8797 
0.8797 
SCALARS So_DAY=3285 double 1
LOOKUP_TABLE default
0.2915 
0.2988 
0.3007 
0.3117 
0.3234 
0.3635 
0.417 
0.5353 
0.787 
0.2988 
0.2999 
0.3041 
0.3222 
0.3368 
0.377 
0.4307 
0.5626 
0.8121 
0.3007 
0.3041 
0.3164 
0.3415 
0.357 
0.3941 
0.4524 
0.6087 
0.8413 
0.3116 
0.3221 
0.3414 
0.3679 
0.3814 
0.4144 
0.4881 
0.684 
0.8643 
0.3232 
0.3365 
0.3568 
0.3813 
0.3925 
0.426 
0.5088 
0.7346 
0.872 
0.3666 
0.3802 
0.3974 
0.4193 
0.4322 
0.4898 
0.6272 
0.8306 
0.8777 
0.4247 
0.4398 
0.4641 
0.5042 
0.5294 
0.642 
0.8017 
0.8689 
0.8791 
0.5568 
0.5878 
0.6403 
0.7192 
0.7679 
0.8397 
0.87 
0.8778 
0.8795 
0.8072 
0.8294 
0.8532 
0.8698 
0.8747 
0.8782 
0.8792 
0.8795 
0.8797 
SCALARS So_DAY=3650 double 1
LOOKUP_TABLE default
0.2911 
0.2984 
0.3001 
0.3072 
0.3159 
0.3501 
0.3978 
0.4846 
0.7168 
0.2984 
0.2995 
0.3019 
0.3149 
0.3265 
0.3623 
0.4073 
0.5007 
0.7413 
0.3001 
0.3019 
0.3102 
0.3304 
0.344 
0.3783 
0.4213 
0.5255 
0.7746 
0.3072 
0.3148 
0.3303 
0.3538 
0.3665 
0.396 
0.4418 
0.5647 
0.8128 
0.3157 
0.3263 
0.3438 
0.3664 
0.3777 
0.4031 
0.4524 
0.587 
0.8336 
0.3528 
0.3651 
0.3813 
0.3991 
0.4068 
0.4388 
0.5078 
0.6937 
0.864 
0.4033 
0.4138 
0.4294 
0.4528 
0.4652 
0.5168 
0.63 
0.8101 
0.8745 
0.5004 
0.5191 
0.5485 
0.595 
0.6239 
0.7199 
0.8164 
0.864 
0.8776 
0.7423 
0.7671 
0.7993 
0.8335 
0.8501 
0.8685 
0.8754 
0.8777 
0.879 
SCALARS So_DAY=4015 double 1
LOOKUP_TABLE default
0.2907 
0.298 
0.2996 
0.3043 
0.3105 
0.3395 
0.3834 
0.4524 
0.6551 
0.298 
0.299 
0.3007 
0.3096 
0.3187 
0.3501 
0.392 
0.4626 
0.6721 
0.2996 
0.3007 
0.306 
0.3218 
0.3333 
0.3647 
0.4022 
0.4766 
0.6948 
0.3042 
0.3096 
0.3217 
0.3419 
0.3536 
0.3816 
0.4149 
0.4956 
0.7249 
0.3103 
0.3185 
0.3331 
0.3535 
0.3642 
0.3891 
0.421 
0.5034 
0.7398 
0.3418 
0.3526 
0.3674 
0.3845 
0.3919 
0.4113 
0.4508 
0.5502 
0.7933 
0.3884 
0.397 
0.4078 
0.4225 
0.4294 
0.4566 
0.5066 
0.6381 
0.8379 
0.4643 
0.4761 
0.4926 
0.5157 
0.5263 
0.5717 
0.6533 
0.7828 
0.862 
0.6793 
0.6985 
0.7243 
0.7574 
0.7737 
0.8134 
0.8463 
0.8636 
0.8731 
SCALARS So_DAY=4380 double 1
LOOKUP_TABLE default
0.2902 
0.2975 
0.2992 
0.3024 
0.3066 
0.3309 
0.3715 
0.4309 
0.6075 
0.2975 
0.2986 
0.3 
0.306 
0.3128 
0.3401 
0.3795 
0.4378 
0.6182 
0.2992 
0.3 
0.3033 
0.3152 
0.3247 
0.3531 
0.389 
0.4462 
0.6304 
0.3023 
0.3059 
0.3152 
0.3321 
0.3424 
0.3687 
0.3988 
0.4562 
0.644 
0.3065 
0.3126 
0.3245 
0.3423 
0.352 
0.376 
0.4024 
0.4594 
0.6454 
0.333 
0.3423 
0.3556 
0.3714 
0.3786 
0.396 
0.4188 
0.4785 
0.6716 
0.3761 
0.3841 
0.3937 
0.4037 
0.4079 
0.4228 
0.4489 
0.5078 
0.7041 
0.4402 
0.448 
0.4579 
0.4702 
0.4743 
0.4911 
0.5167 
0.5769 
0.7537 
0.6288 
0.6415 
0.6566 
0.6741 
0.6781 
0.7008 
0.7264 
0.7633 
0.8167 
SCALARS So_DAY=4745 double 1
LOOKUP_TABLE default
0.2933 
0.3006 
0.3019 
0.3044 
0.3075 
0.3276 
0.365 
0.4188 
0.5729 
0.3006 
0.3015 
0.3027 
0.307 
0.3119 
0.3353 
0.3722 
0.4236 
0.5791 
0.3019 
0.3027 
0.305 
0.3138 
0.3212 
0.3465 
0.3808 
0.4288 
0.5843 
0.3044 
0.3069 
0.3137 
0.3275 
0.3363 
0.3605 
0.3899 
0.4337 
0.587 
0.3074 
0.3118 
0.3211 
0.3362 
0.3446 
0.367 
0.3932 
0.4345 
0.584 
0.3294 
0.3373 
0.3489 
0.363 
0.3696 
0.3861 
0.4035 
0.4412 
0.5821 
0.3694 
0.3767 
0.3854 
0.3944 
0.3974 
0.4057 
0.4182 
0.4502 
0.5716 
0.4265 
0.4318 
0.4378 
0.4438 
0.4448 
0.4499 
0.4558 
0.4718 
0.5544 
0.5916 
0.5989 
0.6057 
0.611 
0.6088 
0.605 
0.5908 
0.5667 
0.574 
SCALARS So_DAY=5110 double 1
LOOKUP_TABLE default
0.2966 
0.3023 
0.3043 
0.3067 
0.309 
0.3254 
0.3595 
0.4096 
0.5444 
0.3023 
0.3039 
0.3053 
0.3086 
0.3123 
0.3317 
0.3659 
0.4131 
0.5481 
0.3043 
0.3053 
0.3072 
0.3136 
0.3193 
0.3413 
0.3736 
0.4166 
0.5499 
0.3067 
0.3086 
0.3136 
0.3245 
0.3317 
0.3535 
0.3818 
0.4194 
0.5482 
0.309 
0.3122 
0.3193 
0.3317 
0.3388 
0.3593 
0.3847 
0.4194 
0.5441 
0.3272 
0.3337 
0.3435 
0.3559 
0.3617 
0.3772 
0.3948 
0.4218 
0.5349 
0.3638 
0.3703 
0.3781 
0.3863 
0.3891 
0.3968 
0.4043 
0.4241 
0.5172 
0.4163 
0.4202 
0.4242 
0.4274 
0.4274 
0.4281 
0.4282 
0.4353 
0.4958 
0.5621 
0.5666 
0.5694 
0.5688 
0.5648 
0.5533 
0.5318 
0.5049 
0.5045 
SCALARS So_DAY=5475 double 1
LOOKUP_TABLE default
0.3 
0.3028 
0.306 
0.3089 
0.311 
0.3242 
0.3548 
0.4022 
0.5207 
0.3028 
0.3054 
0.3077 
0.3107 
0.3134 
0.3293 
0.3604 
0.405 
0.5228 
0.306 
0.3077 
0.3095 
0.3144 
0.3187 
0.3372 
0.3672 
0.4075 
0.5229 
0.3089 
0.3106 
0.3144 
0.3228 
0.3286 
0.3477 
0.3745 
0.4093 
0.5195 
0.311 
0.3134 
0.3186 
0.3285 
0.3345 
0.3527 
0.3771 
0.4091 
0.5152 
0.3258 
0.3311 
0.3393 
0.35 
0.3551 
0.3693 
0.3868 
0.4104 
0.5051 
0.359 
0.3647 
0.3716 
0.379 
0.3815 
0.3889 
0.3973 
0.4111 
0.4876 
0.4082 
0.4112 
0.414 
0.416 
0.4157 
0.4154 
0.4143 
0.4179 
0.4662 
0.5372 
0.5399 
0.5405 
0.5375 
0.5331 
0.5204 
0.5002 
0.4745 
0.4732 
SCALARS So_DAY=5840 double 1
LOOKUP_TABLE default
0.3013 
0.3036 
0.307 
0.3107 
0.313 
0.3238 
0.3508 
0.3962 
0.501 
0.3036 
0.3063 
0.3094 
0.3126 
0.315 
0.3279 
0.3557 
0.3986 
0.502 
0.307 
0.3094 
0.3117 
0.3157 
0.319 
0.3343 
0.3616 
0.4005 
0.5012 
0.3107 
0.3126 
0.3157 
0.3222 
0.3267 
0.3431 
0.368 
0.4018 
0.4973 
0.3129 
0.315 
0.3189 
0.3267 
0.3314 
0.3474 
0.3703 
0.4015 
0.4931 
0.3252 
0.3295 
0.3362 
0.3452 
0.3496 
0.3624 
0.3793 
0.4024 
0.4829 
0.3548 
0.3598 
0.3659 
0.3724 
0.3747 
0.3815 
0.3902 
0.4033 
0.4663 
0.4017 
0.404 
0.4062 
0.4075 
0.4072 
0.4067 
0.4059 
0.4083 
0.4459 
0.5161 
0.5176 
0.5171 
0.5132 
0.5089 
0.497 
0.4776 
0.453 
0.455 
SCALARS Sw_DAY=0 double 1
LOOKUP_TABLE default
0.12 
0.12 
0.12 
0.12 
0.12 
0.12 
0.12 
0.12 
0.12 
0.12 
0.12 
0.12 
0.12 
0.12 
0.12 
0.12 
0.12 
0.12 
0.12 
0.12 
0.12 
0.12 
0.12 
0.12 
0.12 
0.12 
0.12 
0.12 
0.12 
0.12 
0.12 
0.12 
0.12 
0.12 
0.12 
0.12 
0.12 
0.12 
0.12 
0.12 
0.12 
0.12 
0.12 
0.12 
0.12 
0.12 
0.12 
0.12 
0.12 
0.12 
0.12 
0.12 
0.12 
0.12 
0.12 
0.12 
0.12 
0.12 
0.12 
0.12 
0.12 
0.12 
0.12 
0.12 
0.12 
0.12 
0.12 
0.12 
0.12 
0.12 
0.12 
0.12 
0.12 
0.12 
0.12 
0.12 
0.12 
0.12 
0.12 
0.12 
0.12 
SCALARS Sw_DAY=365 double 1
LOOKUP_TABLE default
0.1212 
0.1212 
0.1212 
0.1212 
0.1212 
0.1212 
0.1212 
0.1212 
0.1212 
0.1212 
0.1212 
0.1212 
0.1212 
0.1212 
0.1212 
0.1212 
0.1212 
0.1212 
0.1212 
0.1212 
0.1212 
0.1212 
0.1212 
0.1212 
0.1212 
0.1212 
0.1212 
0.1212 
0.1212 
0.1212 
0.1212 
0.1212 
0.1212 
0.1212 
0.1212 
0.1212 
0.1212 
0.1212 
0.1212 
0.1212 
0.1212 
0.1212 
0.1212 
0.1212 
0.1212 
0.1212 
0.1212 
0.1212 
0.1212 
0.1212 
0.1212 
0.1212 
0.1212 
0.1212 
0.1212 
0.1212 
0.1212 
0.1212 
0.1212 
0.1212 
0.1212 
0.1212 
0.1212 
0.1212 
0.1212 
0.1212 
0.1212 
0.1212 
0.1212 
0.1212 
0.1212 
0.1212 
0.1212 
0.1212 
0.1212 
0.1212 
0.1212 
0.1212 
0.1212 
0.1212 
0.1212 
SCALARS Sw_DAY=730 double 1
LOOKUP_TABLE default
0.6918 
0.628 
0.4776 
0.1948 
0.126 
0.121 
0.1209 
0.1209 
0.1209 
0.6281 
0.5313 
0.2781 
0.1306 
0.1214 
0.1209 
0.1209 
0.1209 
0.1209 
0.4778 
0.2783 
0.1346 
0.1213 
0.121 
0.1209 
0.1209 
0.1209 
0.1209 
0.1951 
0.1306 
0.1213 
0.1209 
0.1209 
0.1209 
0.1209 
0.1209 
0.1209 
0.1261 
0.1214 
0.121 
0.1209 
0.1209 
0.1209 
0.1209 
0.1209 
0.1209 
0.121 
0.1209 
0.1209 
0.1209 
0.1209 
0.1209 
0.1209 
0.1209 
0.1209 
0.1209 
0.1209 
0.1209 
0.1209 
0.1209 
0.1209 
0.1209 
0.1209 