# vtk DataFile Version 3.0
MOAB 5.4.1
ASCII
DATASET UNSTRUCTURED_GRID
POINTS 972 double
0 0 -0
80 0 -0
160 0 -0
240 0 -0
320 0 -0
400 0 -0
480 0 -0
560 0 -0
640 0 -0
720 0 -0
800 0 -0
880 0 -0
960 0 -0
1040 0 -0
1120 0 -0
1200 0 -0
1280 0 -0
1360 0 -0
0 80 -0
80 80 -0
160 80 -0
240 80 -0
320 80 -0
400 80 -0
480 80 -0
560 80 -0
640 80 -0
720 80 -0
800 80 -0
880 80 -0
960 80 -0
1040 80 -0
1120 80 -0
1200 80 -0
1280 80 -0
1360 80 -0
0 160 -0
80 160 -0
160 160 -0
240 160 -0
320 160 -0
400 160 -0
480 160 -0
560 160 -0
640 160 -0
720 160 -0
800 160 -0
880 160 -0
960 160 -0
1040 160 -0
1120 160 -0
1200 160 -0
1280 160 -0
1360 160 -0
0 240 -0
80 240 -0
160 240 -0
240 240 -0
320 240 -0
400 240 -0
480 240 -0
560 240 -0
640 240 -0
720 240 -0
800 240 -0
880 240 -0
960 240 -0
1040 240 -0
1120 240 -0
1200 240 -0
1280 240 -0
1360 240 -0
0 320 -0
80 320 -0
160 320 -0
240 320 -0
320 320 -0
400 320 -0
480 320 -0
560 320 -0
640 320 -0
720 320 -0
800 320 -0
880 320 -0
960 320 -0
1040 320 -0
1120 320 -0
1200 320 -0
1280 320 -0
1360 320 -0
0 400 -0
80 400 -0
160 400 -0
240 400 -0
320 400 -0
400 400 -0
480 400 -0
560 400 -0
640 400 -0
720 400 -0
800 400 -0
880 400 -0
960 400 -0
1040 400 -0
1120 400 -0
1200 400 -0
1280 400 -0
1360 400 -0
0 480 -0
80 480 -0
160 480 -0
240 480 -0
320 480 -0
400 480 -0
480 480 -0
560 480 -0
640 480 -0
720 480 -0
800 480 -0
880 480 -0
960 480 -0
1040 480 -0
1120 480 -0
1200 480 -0
1280 480 -0
1360 480 -0
0 560 -0
80 560 -0
160 560 -0
240 560 -0
320 560 -0
400 560 -0
480 560 -0
560 560 -0
640 560 -0
720 560 -0
800 560 -0
880 560 -0
960 560 -0
1040 560 -0
1120 560 -0
1200 560 -0
1280 560 -0
1360 560 -0
0 640 -0
80 640 -0
160 640 -0
240 640 -0
320 640 -0
400 640 -0
480 640 -0
560 640 -0
640 640 -0
720 640 -0
800 640 -0
880 640 -0
960 640 -0
1040 640 -0
1120 640 -0
1200 640 -0
1280 640 -0
1360 640 -0
0 720 -0
80 720 -0
160 720 -0
240 720 -0
320 720 -0
400 720 -0
480 720 -0
560 720 -0
640 720 -0
720 720 -0
800 720 -0
880 720 -0
960 720 -0
1040 720 -0
1120 720 -0
1200 720 -0
1280 720 -0
1360 720 -0
0 800 -0
80 800 -0
160 800 -0
240 800 -0
320 800 -0
400 800 -0
480 800 -0
560 800 -0
640 800 -0
720 800 -0
800 800 -0
880 800 -0
960 800 -0
1040 800 -0
1120 800 -0
1200 800 -0
1280 800 -0
1360 800 -0
0 880 -0
80 880 -0
160 880 -0
240 880 -0
320 880 -0
400 880 -0
480 880 -0
560 880 -0
640 880 -0
720 880 -0
800 880 -0
880 880 -0
960 880 -0
1040 880 -0
1120 880 -0
1200 880 -0
1280 880 -0
1360 880 -0
0 960 -0
80 960 -0
160 960 -0
240 960 -0
320 960 -0
400 960 -0
480 960 -0
560 960 -0
640 960 -0
720 960 -0
800 960 -0
880 960 -0
960 960 -0
1040 960 -0
1120 960 -0
1200 960 -0
1280 960 -0
1360 960 -0
0 1040 -0
80 1040 -0
160 1040 -0
240 1040 -0
320 1040 -0
400 1040 -0
480 1040 -0
560 1040 -0
640 1040 -0
720 1040 -0
800 1040 -0
880 1040 -0
960 1040 -0
1040 1040 -0
1120 1040 -0
1200 1040 -0
1280 1040 -0
1360 1040 -0
0 1120 -0
80 1120 -0
160 1120 -0
240 1120 -0
320 1120 -0
400 1120 -0
480 1120 -0
560 1120 -0
640 1120 -0
720 1120 -0
800 1120 -0
880 1120 -0
960 1120 -0
1040 1120 -0
1120 1120 -0
1200 1120 -0
1280 1120 -0
1360 1120 -0
0 1200 -0
80 1200 -0
160 1200 -0
240 1200 -0
320 1200 -0
400 1200 -0
480 1200 -0
560 1200 -0
640 1200 -0
720 1200 -0
800 1200 -0
880 1200 -0
960 1200 -0
1040 1200 -0
1120 1200 -0
1200 1200 -0
1280 1200 -0
1360 1200 -0
0 1280 -0
80 1280 -0
160 1280 -0
240 1280 -0
320 1280 -0
400 1280 -0
480 1280 -0
560 1280 -0
640 1280 -0
720 1280 -0
800 1280 -0
880 1280 -0
960 1280 -0
1040 1280 -0
1120 1280 -0
1200 1280 -0
1280 1280 -0
1360 1280 -0
0 1360 -0
80 1360 -0
160 1360 -0
240 1360 -0
320 1360 -0
400 1360 -0
480 1360 -0
560 1360 -0
640 1360 -0
720 1360 -0
800 1360 -0
880 1360 -0
960 1360 -0
1040 1360 -0
1120 1360 -0
1200 1360 -0
1280 1360 -0
1360 1360 -0
0 0 -15
80 0 -15
160 0 -15
240 0 -15
320 0 -15
400 0 -15
480 0 -15
560 0 -15
640 0 -15
720 0 -15
800 0 -15
880 0 -15
960 0 -15
1040 0 -15
1120 0 -15
1200 0 -15
1280 0 -15
1360 0 -15
0 80 -15
80 80 -15
160 80 -15
240 80 -15
320 80 -15
400 80 -15
480 80 -15
560 80 -15
640 80 -15
720 80 -15
800 80 -15
880 80 -15
960 80 -15
1040 80 -15
1120 80 -15
1200 80 -15
1280 80 -15
1360 80 -15
0 160 -15
80 160 -15
160 160 -15
240 160 -15
320 160 -15
400 160 -15
480 160 -15
560 160 -15
640 160 -15
720 160 -15
800 160 -15
880 160 -15
960 160 -15
1040 160 -15
1120 160 -15
1200 160 -15
1280 160 -15
1360 160 -15
0 240 -15
80 240 -15
160 240 -15
240 240 -15
320 240 -15
400 240 -15
480 240 -15
560 240 -15
640 240 -15
720 240 -15
800 240 -15
880 240 -15
960 240 -15
1040 240 -15
1120 240 -15
1200 240 -15
1280 240 -15
1360 240 -15
0 320 -15
80 320 -15
160 320 -15
240 320 -15
320 320 -15
400 320 -15
480 320 -15
560 320 -15
640 320 -15
720 320 -15
800 320 -15
880 320 -15
960 320 -15
1040 320 -15
1120 320 -15
1200 320 -15
1280 320 -15
1360 320 -15
0 400 -15
80 400 -15
160 400 -15
240 400 -15
320 400 -15
400 400 -15
480 400 -15
560 400 -15
640 400 -15
720 400 -15
800 400 -15
880 400 -15
960 400 -15
1040 400 -15
1120 400 -15
1200 400 -15
1280 400 -15
1360 400 -15
0 480 -15
80 480 -15
160 480 -15
240 480 -15
320 480 -15
400 480 -15
480 480 -15
560 480 -15
640 480 -15
720 480 -15
800 480 -15
880 480 -15
960 480 -15
1040 480 -15
1120 480 -15
1200 480 -15
1280 480 -15
1360 480 -15
0 560 -15
80 560 -15
160 560 -15
240 560 -15
320 560 -15
400 560 -15
480 560 -15
560 560 -15
640 560 -15
720 560 -15
800 560 -15
880 560 -15
960 560 -15
1040 560 -15
1120 560 -15
1200 560 -15
1280 560 -15
1360 560 -15
0 640 -15
80 640 -15
160 640 -15
240 640 -15
320 640 -15
400 640 -15
480 640 -15
560 640 -15
640 640 -15
720 640 -15
800 640 -15
880 640 -15
960 640 -15
1040 640 -15
1120 640 -15
1200 640 -15
1280 640 -15
1360 640 -15
0 720 -15
80 720 -15
160 720 -15
240 720 -15
320 720 -15
400 720 -15
480 720 -15
560 720 -15
640 720 -15
720 720 -15
800 720 -15
880 720 -15
960 720 -15
1040 720 -15
1120 720 -15
1200 720 -15
1280 720 -15
1360 720 -15
0 800 -15
80 800 -15
160 800 -15
240 800 -15
320 800 -15
400 800 -15
480 800 -15
560 800 -15
640 800 -15
720 800 -15
800 800 -15
880 800 -15
960 800 -15
1040 800 -15
1120 800 -15
1200 800 -15
1280 800 -15
1360 800 -15
0 880 -15
80 880 -15
160 880 -15
240 880 -15
320 880 -15
400 880 -15
480 880 -15
560 880 -15
640 880 -15
720 880 -15
800 880 -15
880 880 -15
960 880 -15
1040 880 -15
1120 880 -15
1200 880 -15
1280 880 -15
1360 880 -15
0 960 -15
80 960 -15
160 960 -15
240 960 -15
320 960 -15
400 960 -15
480 960 -15
560 960 -15
640 960 -15
720 960 -15
800 960 -15
880 960 -15
960 960 -15
1040 960 -15
1120 960 -15
1200 960 -15
1280 960 -15
1360 960 -15
0 1040 -15
80 1040 -15
160 1040 -15
240 1040 -15
320 1040 -15
400 1040 -15
480 1040 -15
560 1040 -15
640 1040 -15
720 1040 -15
800 1040 -15
880 1040 -15
960 1040 -15
1040 1040 -15
1120 1040 -15
1200 1040 -15
1280 1040 -15
1360 1040 -15
0 1120 -15
80 1120 -15
160 1120 -15
240 1120 -15
320 1120 -15
400 1120 -15
480 1120 -15
560 1120 -15
640 1120 -15
720 1120 -15
800 1120 -15
880 1120 -15
960 1120 -15
1040 1120 -15
1120 1120 -15
1200 1120 -15
1280 1120 -15
1360 1120 -15
0 1200 -15
80 1200 -15
160 1200 -15
240 1200 -15
320 1200 -15
400 1200 -15
480 1200 -15
560 1200 -15
640 1200 -15
720 1200 -15
800 1200 -15
880 1200 -15
960 1200 -15
1040 1200 -15
1120 1200 -15
1200 1200 -15
1280 1200 -15
1360 1200 -15
0 1280 -15
80 1280 -15
160 1280 -15
240 1280 -15
320 1280 -15
400 1280 -15
480 1280 -15
560 1280 -15
640 1280 -15
720 1280 -15
800 1280 -15
880 1280 -15
960 1280 -15
1040 1280 -15
1120 1280 -15
1200 1280 -15
1280 1280 -15
1360 1280 -15
0 1360 -15
80 1360 -15
160 1360 -15
240 1360 -15
320 1360 -15
400 1360 -15
480 1360 -15
560 1360 -15
640 1360 -15
720 1360 -15
800 1360 -15
880 1360 -15
960 1360 -15
1040 1360 -15
1120 1360 -15
1200 1360 -15
1280 1360 -15
1360 1360 -15
0 0 -30
80 0 -30
160 0 -30
240 0 -30
320 0 -30
400 0 -30
480 0 -30
560 0 -30
640 0 -30
720 0 -30
800 0 -30
880 0 -30
960 0 -30
1040 0 -30
1120 0 -30
1200 0 -30
1280 0 -30
1360 0 -30
0 80 -30
80 80 -30
160 80 -30
240 80 -30
320 80 -30
400 80 -30
480 80 -30
560 80 -30
640 80 -30
720 80 -30
800 80 -30
880 80 -30
960 80 -30
1040 80 -30
1120 80 -30
1200 80 -30
1280 80 -30
1360 80 -30
0 160 -30
80 160 -30
160 160 -30
240 160 -30
320 160 -30
400 160 -30
480 160 -30
560 160 -30
640 160 -30
720 160 -30
800 160 -30
880 160 -30
960 160 -30
1040 160 -30
1120 160 -30
1200 160 -30
1280 160 -30
1360 160 -30
0 240 -30
80 240 -30
160 240 -30
240 240 -30
320 240 -30
400 240 -30
480 240 -30
560 240 -30
640 240 -30
720 240 -30
800 240 -30
880 240 -30
960 240 -30
1040 240 -30
1120 240 -30
1200 240 -30
1280 240 -30
1360 240 -30
0 320 -30
80 320 -30
160 320 -30
240 320 -30
320 320 -30
400 320 -30
480 320 -30
560 320 -30
640 320 -30
720 320 -30
800 320 -30
880 320 -30
960 320 -30
1040 320 -30
1120 320 -30
1200 320 -30
1280 320 -30
1360 320 -30
0 400 -30
80 400 -30
160 400 -30
240 400 -30
320 400 -30
400 400 -30
480 400 -30
560 400 -30
640 400 -30
720 400 -30
800 400 -30
880 400 -30
960 400 -30
1040 400 -30
1120 400 -30
1200 400 -30
1280 400 -30
1360 400 -30
0 480 -30
80 480 -30
160 480 -30
240 480 -30
320 480 -30
400 480 -30
480 480 -30
560 480 -30
640 480 -30
720 480 -30
800 480 -30
880 480 -30
960 480 -30
1040 480 -30
1120 480 -30
1200 480 -30
1280 480 -30
1360 480 -30
0 560 -30
80 560 -30
160 560 -30
240 560 -30
320 560 -30
400 560 -30
480 560 -30
560 560 -30
640 560 -30
720 560 -30
800 560 -30
880 560 -30
960 560 -30
1040 560 -30
1120 560 -30
1200 560 -30
1280 560 -30
1360 560 -30
0 640 -30
80 640 -30
160 640 -30
240 640 -30
320 640 -30
400 640 -30
480 640 -30
560 640 -30
640 640 -30
720 640 -30
800 640 -30
880 640 -30
960 640 -30
1040 640 -30
1120 640 -30
1200 640 -30
1280 640 -30
1360 640 -30
0 720 -30
80 720 -30
160 720 -30
240 720 -30
320 720 -30
400 720 -30
480 720 -30
560 720 -30
640 720 -30
720 720 -30
800 720 -30
880 720 -30
960 720 -30
1040 720 -30
1120 720 -30
1200 720 -30
1280 720 -30
1360 720 -30
0 800 -30
80 800 -30
160 800 -30
240 800 -30
320 800 -30
400 800 -30
480 800 -30
560 800 -30
640 800 -30
720 800 -30
800 800 -30
880 800 -30
960 800 -30
1040 800 -30
1120 800 -30
[...]
POINT_DATA 972
SCALARS GLOBAL_ID int 1
LOOKUP_TABLE default
-1 
-1 
-1 
-1 
-1 
-1 
-1 
-1 
-1 
-1 
-1 
-1 
-1 
-1 
-1 
-1 
-1 
-1 
-1 
-1 
-1 
-1 
-1 
-1 
-1 
-1 
-1 
-1 
-1 
-1 
-1 
-1 
-1 
-1 
-1 
-1 
-1 
-1 
-1 
-1 
-1 
-1 
-1 
-1 
-1 
-1 
-1 
-1 
-1 
-1 
-1 
-1 
-1 
-1 
-1 
-1 
-1 
-1 
-1 
-1 
-1 
-1 
-1 
-1 
-1 
-1 
-1 
-1 
-1 
-1 
-1 
-1 
-1 
-1 
-1 
-1 
-1 
-1 
-1 
-1 
-1 
-1 
-1 
-1 
-1 
-1 
-1 
-1 
-1 
-1 
-1 
-1 
-1 
-1 
-1 
-1 
-1 
-1 
-1 
-1 
-1 
-1 
-1 
-1 
-1 
-1 
-1 
-1 
-1 
-1 
-1 
-1 
-1 
-1 
-1 
-1 
-1 
-1 
-1 
-1 
-1 
-1 
-1 
-1 
-1 
-1 
-1 
-1 
-1 
-1 
-1 
-1 
-1 
-1 
-1 
-1 
-1 
-1 
-1 
-1 
-1 
-1 
-1 
-1 
-1 
-1 
-1 
-1 
-1 
-1 
-1 
-1 
-1 
-1 
-1 
-1 
-1 
-1 
-1 
-1 
-1 
-1 
-1 
-1 
-1 
-1 
-1 
-1 
-1 
-1 
-1 
-1 
-1 
-1 
-1 
-1 
-1 
-1 
-1 
-1 
-1 
-1 
-1 
-1 
-1 
-1 
-1 
-1 
-1 
-1 
-1 
-1 
-1 
-1 
-1 
-1 
-1 
-1 
-1 
-1 
-1 
-1 
-1 
-1 
-1 
-1 
-1 
-1 
-1 
-1 
-1 
-1 
-1 
-1 
-1 
-1 
-1 
-1 
-1 
-1 
-1 
-1 
-1 
-1 
-1 
-1 
-1 
-1 
-1 
-1 
-1 
-1 
-1 
-1 
-1 
-1 
-1 
-1 
-1 
-1 
-1 
-1 
-1 
-1 
-1 
-1 
-1 
-1 
-1 
-1 
-1 
-1 
-1 
-1 
-1 
-1 
-1 
-1 
-1 
-1 
-1 
-1 
-1 
-1 
-1 
-1 
-1 
-1 
-1 
-1 
-1 
-1 
-1 
-1 
-1 
-1 
-1 
-1 
-1 
-1 
-1 
-1 
-1 
-1 
-1 
-1 
-1 
-1 
-1 
-1 
-1 
-1 
-1 
-1 
-1 
-1 
-1 
-1 
-1 
-1 
-1 
-1 
-1 
-1 
-1 
-1 
-1 
-1 
-1 
-1 
-1 
-1 
-1 
-1 
-1 
-1 
-1 
-1 
-1 
-1 
-1 
-1 
-1 
-1 
-1 
-1 
-1 
-1 
-1 
-1 
-1 
-1 
-1 
-1 
-1 
-1 
-1 
-1 
-1 
-1 
-1 
-1 
-1 
-1 
-1 
-1 
-1 
-1 
-1 
-1 
-1 
-1 
-1 
-1 
-1 
-1 
-1 
-1 
-1 
-1 
-1 
-1 
-1 
-1 
-1 
-1 
-1 
-1 
-1 
-1 
-1 
-1 
-1 
-1 
-1 
-1 
-1 
-1 
-1 
-1 
-1 
-1 
-1 
-1 
-1 
-1 
-1 
-1 
-1 
-1 
-1 
-1 
-1 
-1 
-1 
-1 
-1 
-1 
-1 
-1 
-1 
-1 
-1 
-1 
-1 
-1 
-1 
-1 
-1 
-1 
-1 
-1 
-1 
-1 
-1 
-1 
-1 
-1 
-1 
-1 
-1 
-1 
-1 
-1 
-1 
-1 
-1 
-1 
-1 
-1 
-1 
-1 
-1 
-1 
-1 
-1 
-1 
-1 
-1 
-1 
-1 
-1 
-1 
-1 
-1 
-1 
-1 
-1 
-1 
-1 
-1 
-1 
-1 
-1 
-1 
-1 
-1 
-1 
-1 
-1 
-1 
-1 
-1 
-1 
-1 
-1 
-1 
-1 
-1 
-1 
-1 
-1 
-1 
-1 
-1 
-1 
-1 
-1 
-1 
-1 
-1 
-1 
-1 
-1 
-1 
-1 
-1 
-1 
-1 
-1 
-1 
-1 
-1 
-1 
-1 
-1 
-1 
-1 
-1 
-1 
-1 
-1 
-1 
-1 
-1 
-1 
-1 
-1 
-1 
-1 
-1 
-1 
-1 
-1 
-1 
-1 
-1 
-1 
-1 
-1 
-1 
-1 
-1 
-1 
-1 
-1 
-1 
-1 
-1 
-1 
-1 
-1 
-1 
-1 
-1 
-1 
-1 
-1 
-1 
-1 
-1 
-1 
-1 
-1 
-1 
-1 
-1 
-1 
-1 
-1 
-1 
-1 
-1 
-1 
-1 
-1 
-1 
-1 
-1 
-1 
-1 
-1 
-1 
-1 
-1 
-1 
-1 
-1 
-1 
-1 
-1 
-1 
-1 
-1 
-1 
-1 
-1 
-1 
-1 
-1 
-1 
-1 
-1 
-1 
-1 
-1 
-1 
-1 
-1 
-1 
-1 
-1 
-1 
-1 
-1 
-1 
-1 
-1 
-1 
-1 
-1 
-1 
-1 
-1 
-1 
-1 
-1 
-1 
-1 
-1 
-1 
-1 
-1 
-1 
-1 
-1 
-1 
-1 
-1 
-1 
-1 
-1 
-1 
-1 
-1 
-1 
-1 
-1 
-1 
-1 
-1 
-1 
-1 
-1 
-1 
-1 
-1 
-1 
-1 
-1 
-1 
-1 
-1 
-1 
-1 
-1 
-1 
-1 
-1 
-1 
-1 
-1 
-1 
-1 
-1 
-1 
-1 
-1 
-1 
-1 
-1 
-1 
-1 
-1 
-1 
-1 
-1 
-1 
-1 
-1 
-1 
-1 
-1 
-1 
-1 
-1 
-1 
-1 
-1 
-1 
-1 
-1 
-1 
-1 
-1 
-1 
-1 
-1 
-1 
-1 
-1 
-1 
-1 
-1 
-1 
-1 
-1 
-1 
-1 
-1 
-1 
-1 
-1 
-1 
-1 
-1 
-1 
-1 
-1 
-1 
-1 
-1 
-1 
-1 
-1 
-1 
-1 
-1 
-1 
-1 
-1 
-1 
-1 
-1 
-1 
-1 
-1 
-1 
-1 
-1 
-1 
-1 
-1 
-1 
-1 
-1 
-1 
-1 
-1 
-1 
-1 
-1 
-1 
-1 
-1 
-1 
-1 
-1 
-1 
-1 
-1 
-1 
-1 
-1 
-1 
-1 
-1 
-1 
-1 
-1 
-1 
-1 
-1 
-1 
-1 
-1 
-1 
-1 
-1 
-1 
-1 
-1 
-1 
-1 
-1 
-1 
-1 
-1 
-1 
-1 
-1 
-1 
-1 
-1 
-1 
-1 
-1 
-1 
-1 
-1 
-1 
-1 
-1 
-1 
-1 
-1 
-1 
-1 
-1 
-1 
-1 
-1 
-1 
-1 
-1 
-1 
-1 
-1 
-1 
-1 
-1 
-1 
-1 
-1 
-1 
-1 
-1 
-1 
-1 
-1 
-1 
-1 
-1 
-1 
-1 
-1 
-1 
-1 
-1 
-1 
-1 
-1 
-1 
-1 
-1 
-1 
-1 
-1 
-1 
-1 
-1 
-1 
-1 
-1 
-1 
-1 
-1 
-1 
-1 
-1 
-1 
-1 
-1 
-1 
-1 
-1 
-1 
-1 
-1 
-1 
-1 
-1 
-1 
-1 
-1 
-1 
-1 
-1 
-1 
-1 
-1 
-1 
-1 
-1 
-1 
-1 
-1 
-1 
-1 
-1 
-1 
-1 
-1 
-1 
-1 
-1 
-1 
-1 
-1 
-1 
-1 
-1 
-1 
-1 
-1 
-1 
-1 
-1 
-1 
-1 
-1 
-1 
-1 
-1 
-1 
-1 
-1 
-1 
-1 
-1 
-1 
-1 
-1 
-1 
-1 
-1 
-1 
-1 
-1 
-1 
-1 
-1 
-1 
-1 
-1 
-1 
-1 
-1 
-1 
-1 
-1 
-1 
-1 
-1 
-1 
-1 
-1 
-1 
-1 
-1 
-1 
-1 
-1 
-1 
-1 
-1 
-1 
-1 
-1 
-1 
-1 
-1 
-1 
-1 
-1 
-1 
-1 
-1 
-1 
-1 
-1 
-1 
-1 
-1 
-1 
-1 
-1 
-1 
-1 
-1 
-1 
-1 
CELL_DATA 578
SCALARS GLOBAL_ID int 1
LOOKUP_TABLE default
-1 
-1 
-1 
-1 
-1 
-1 
-1 
-1 
-1 
-1 
-1 
-1 
-1 
-1 
-1 
-1 
-1 
-1 
-1 
-1 
-1 
-1 
-1 
-1 
-1 
-1 
-1 
-1 
-1 
-1 
-1 
-1 
-1 
-1 
-1 
-1 
-1 
-1 
-1 
-1 
-1 
-1 
-1 
-1 
-1 
-1 
-1 
-1 
-1 
-1 
-1 
-1 
-1 
-1 
-1 
-1 
-1 
-1 
-1 
-1 
-1 
-1 
-1 
-1 
-1 
-1 
-1 
-1 
-1 
-1 
-1 
-1 
-1 
-1 
-1 
-1 
-1 
-1 
-1 
-1 
-1 
-1 
-1 
-1 
-1 
-1 
-1 
-1 
-1 
-1 
-1 
-1 
-1 
-1 
-1 
-1 
-1 
-1 
-1 
-1 
-1 
-1 
-1 
-1 
-1 
-1 
-1 
-1 
-1 
-1 
-1 
-1 
-1 
-1 
-1 
-1 
-1 
-1 
-1 
-1 
-1 
-1 
-1 
-1 
-1 
-1 
-1 
-1 
-1 
-1 
-1 
-1 
-1 
-1 
-1 
-1 
-1 
-1 
-1 
-1 
-1 
-1 
-1 
-1 
-1 
-1 
-1 
-1 
-1 
-1 
-1 
-1 
-1 
-1 
-1 
-1 
-1 
-1 
-1 
-1 
-1 
-1 
-1 
-1 
-1 
-1 
-1 
-1 
-1 
-1 
-1 
-1 
-1 
-1 
-1 
-1 
-1 
-1 
-1 
-1 
-1 
-1 
-1 
-1 
-1 
-1 
-1 
-1 
-1 
-1 
-1 
-1 
-1 
-1 
-1 
-1 
-1 
-1 
-1 
-1 
-1 
-1 
-1 
-1 
-1 
-1 
-1 
-1 
-1 
-1 
-1 
-1 
-1 
-1 
-1 
-1 
-1 
-1 
-1 
-1 
-1 
-1 
-1 
-1 
-1 
-1 
-1 
-1 
-1 
-1 
-1 
-1 
-1 
-1 
-1 
-1 
-1 
-1 
-1 
-1 
-1 
-1 
-1 
-1 
-1 
-1 
-1 
-1 
-1 
-1 
-1 
-1 
-1 
-1 
-1 
-1 
-1 
-1 
-1 
-1 
-1 
-1 
-1 
-1 
-1 
-1 
-1 
-1 
-1 
-1 
-1 
-1 
-1 
-1 
-1 
-1 
-1 
-1 
-1 
-1 
-1 
-1 
-1 
-1 
-1 
-1 
-1 
-1 
-1 
-1 
-1 
-1 
-1 
-1 
-1 
-1 
-1 
-1 
-1 
-1 
-1 
-1 
-1 
-1 
-1 
-1 
-1 
-1 
-1 
-1 
-1 
-1 
-1 
-1 
-1 
-1 
-1 
-1 
-1 
-1 
-1 
-1 
-1 
-1 
-1 
-1 
-1 
-1 
-1 
-1 
-1 
-1 
-1 
-1 
-1 
-1 
-1 
-1 
-1 
-1 
-1 
-1 
-1 
-1 
-1 
-1 
-1 
-1 
-1 
-1 
-1 
-1 
-1 
-1 
-1 
-1 
-1 
-1 
-1 
-1 
-1 
-1 
-1 
-1 
-1 
-1 
-1 
-1 
-1 
-1 
-1 
-1 
-1 
-1 
-1 
-1 
-1 
-1 
-1 
-1 
-1 
-1 
-1 
-1 
-1 
-1 
-1 
-1 
-1 
-1 
-1 
-1 
-1 
-1 
-1 
-1 
-1 
-1 
-1 
-1 
-1 
-1 
-1 
-1 
-1 
-1 
-1 
-1 
-1 
-1 
-1 
-1 
-1 
-1 
-1 
-1 
-1 
-1 
-1 
-1 
-1 
-1 
-1 
-1 
-1 
-1 
-1 
-1 
-1 
-1 
-1 
-1 
-1 
-1 
-1 
-1 
-1 
-1 
-1 
-1 
-1 
-1 
-1 
-1 
-1 
-1 
-1 
-1 
-1 
-1 
-1 
-1 
-1 
-1 
-1 
-1 
-1 
-1 
-1 
-1 
-1 
-1 
-1 
-1 
-1 
-1 
-1 
-1 
-1 
-1 
-1 
-1 
-1 
-1 
-1 
-1 
-1 
-1 
-1 
-1 
-1 
-1 
-1 
-1 
-1 
-1 
-1 
-1 
-1 
-1 
-1 
-1 
-1 
-1 
-1 
-1 
-1 
-1 
-1 
-1 
-1 
-1 
-1 
-1 
-1 
-1 
-1 
-1 
-1 
-1 
-1 
-1 
-1 
-1 
-1 
-1 
-1 
-1 
-1 
-1 
-1 
-1 
-1 
-1 
-1 
-1 
-1 
-1 
-1 
-1 
-1 
-1 
-1 
-1 
-1 
-1 
-1 
-1 
-1 
-1 
-1 
-1 
-1 
-1 
-1 
-1 
-1 
-1 
-1 
-1 
-1 
-1 
-1 
-1 
-1 
-1 
-1 
-1 
-1 
-1 
-1 
-1 
-1 
-1 
-1 
-1 
-1 
-1 
-1 
-1 
-1 
-1 
-1 
-1 
-1 
-1 
-1 
-1 
SCALARS id int 1
LOOKUP_TABLE default
0 
1 
2 
3 
4 
5 
6 
7 
8 
9 
10 
11 
12 
13 
14 
15 
16 
17 
18 
19 
20 
21 
22 
23 
24 
25 
26 
27 
28 
29 
30 
31 
32 
33 
34 
35 
36 
37 
38 
39 
40 
41 
42 
43 
44 
45 
46 
47 
48 
49 
50 
51 
52 
53 
54 
55 
56 
57 
58 
59 
60 
61 
62 
63 
64 
65 
66 
67 
68 
69 
70 
71 
72 
73 
74 
75 
76 
77 
78 
79 
80 
81 
82 
83 
84 
85 
86 
87 
88 
89 
90 
91 
92 
93 
94 
95 
96 
97 
98 
99 
100 
101 
102 
103 
104 
105 
106 
107 
108 
109 
110 
111 
112 
113 
114 
115 
116 
117 
118 
119 
120 
121 
122 
123 
124 
125 
126 
127 
128 
129 
130 
131 
132 
133 
134 
135 
136 
137 
138 
139 
140 
141 
142 
143 
144 
145 
146 
147 
148 
149 
150 
151 
152 
153 
154 
155 
156 
157 
158 
159 
160 
161 
162 
163 
164 
165 
166 
167 
168 
169 
170 
171 
172 
173 
174 
175 
176 
177 
178 
179 
180 
181 
182 
183 
184 
185 
186 
187 
188 
189 
190 
191 
192 
193 
194 
195 
196 
197 
198 
199 
200 
201 
202 
203 
204 
205 
206 
207 
208 
209 
210 
211 
212 
213 
214 
215 
216 
217 
218 
219 
220 
221 
222 
223 
224 
225 
226 
227 
228 
229 
230 
231 
232 
233 
234 
235 
236 
237 
238 
239 
240 
241 
242 
243 
244 
245 
246 
247 
248 
249 
250 
251 
252 
253 
254 
255 
256 
257 
258 
259 
260 
261 
262 
263 
264 
265 
266 
267 
268 
269 
270 
271 
272 
273 
274 
275 
276 
277 
278 
279 
280 
281 
282 
283 
284 
285 
286 
287 
288 
289 
290 
291 
292 
293 
294 
295 
296 
297 
298 
299 
300 
301 
302 
303 
304 
305 
306 
307 
308 
309 
310 
311 
312 
313 
314 
315 
316 
317 
318 
319 
320 
321 
322 
323 
324 
325 
326 
327 
328 
329 
330 
331 
332 
333 
334 
335 
336 
337 
338 
339 
340 
341 
342 
343 
344 
345 
346 
347 
348 
349 
350 
351 
352 
353 
354 
355 
356 
357 
358 
359 
360 
361 
362 
363 
364 
365 
366 
367 
368 
369 
370 
371 
372 
373 
374 
375 
376 
377 
378 
379 
380 
381 
382 
383 
384 
385 
386 
387 
388 
389 
390 
391 
392 
393 
394 
395 
396 
397 
398 
399 
400 
401 
402 
403 
404 
405 
406 
407 
408 
409 
410 
411 
412 
413 
414 
415 
416 
417 
418 
419 
420 
421 
422 
423 
424 
425 
426 
427 
428 
429 
430 
431 
432 
433 
434 
435 
436 
437 
438 
439 
440 
441 
442 
443 
444 
445 
446 
447 
448 
449 
450 
451 
452 
453 
454 
455 
456 
457 
458 
459 
460 
461 
462 
463 
464 
465 
466 
467 
468 
469 
470 
471 
472 
473 
474 
475 
476 
477 
478 
479 
480 
481 
482 
483 
484 
485 
486 
487 
488 
489 
490 
491 
492 
493 
494 
495 
496 
497 
498 
499 
500 
501 
502 
503 
504 
505 
506 
507 
508 
509 
510 
511 
512 
513 
514 
515 
516 
517 
518 
519 
520 
521 
522 
523 
524 
525 
526 
527 
528 
529 
530 
531 
532 
533 
534 
535 
536 
537 
538 
539 
540 
541 
542 
543 
544 
545 
546 
547 
548 
549 
550 
551 
552 
553 
554 
555 
556 
557 
558 
559 
560 
561 
562 
563 
564 
565 
566 
567 
568 
569 
570 
571 
572 
573 
574 
575 
576 
577 
SCALARS permeability double 1
LOOKUP_TABLE default
100 
100 
100 
100 
100 
100 
100 
100 
100 
100 
100 
100 
100 
100 
100 
100 
100 
100 
100 
100 
100 
100 
100 
100 
100 
100 
100 
100 
100 
100 
100 
100 
100 
100 
100 
100 
100 
100 
100 
100 
100 
100 
100 
100 
100 
100 
100 
100 
100 
100 
100 
100 
100 
100 
100 
100 
100 
100 
100 
100 
100 
100 
100 
100 
100 
100 
100 
100 
100 
100 
100 
100 
100 
100 
100 
100 
100 
100 
100 
100 
100 
100 
100 
100 
100 
100 
100 
100 
100 
100 
100 
100 
100 
100 
100 
100 
100 
100 
100 
100 
100 
100 
100 
100 
100 
100 
100 
100 
100 
100 
100 
100 
100 
100 
100 
100 
100 
100 
100 
100 
100 
100 
100 
100 
100 
100 
100 
100 
100 
100 
100 
100 
100 
100 
100 
100 
100 
100 
100 
100 
100 
100 
100 
100 
100 
100 
100 
100 
100 
100 
100 
100 
100 
100 
100 
100 
100 
100 
100 
100 
100 
100 
100 
100 
100 
100 
100 
100 
100 
100 
100 
100 
100 
100 
100 
100 
100 
100 
100 
100 
100 
100 
100 
100 
100 
100 
100 
100 
100 
100 
100 
100 
100 
100 
100 
100 
100 
100 
100 
100 
100 
100 
100 
100 
100 
100 
100 
100 
100 
100 
100 
100 
100 
100 
100 
100 
100 
100 
100 
100 
100 
100 
100 
100 
100 
100 
100 
100 
100 
100 
100 
100 
100 
100 
100 
100 
100 
100 
100 
100 
100 
100 
100 
100 
100 
100 
100 
100 
100 
100 
100 
100 
100 
100 
100 
100 
100 
100 
100 
100 
100 
100 
100 
100 
100 
100 
100 
100 
100 
100 
100 
100 
100 
100 
100 
100 
100 
100 
100 
100 
100 
100 
100 
100 
100 
100 
100 
100 
100 
100 
100 
100 
100 
100 
100 
100 
100 
100 
100 
100 
100 
100 
100 
100 
100 
100 
100 
100 
100 
100 
100 
100 
100 
100 
100 
100 
100 
100 
100 
100 
100 
100 
100 
100 
100 
100 
100 
100 
100 
100 
100 
100 
100 
100 
100 
100 
100 
100 
100 
100 
100 
100 
100 
100 
100 
100 
100 
100 
100 
100 
100 
100 
100 
100 
100 
100 
100 
100 
100 
100 
100 
100 
100 
100 
100 
100 
100 
100 
100 
100 
100 
100 
100 
100 
100 
100 
100 
100 
100 
100 
100 
100 
100 
100 
100 
100 
100 
100 
100 
100 
100 
100 
100 
100 
100 
100 
100 
100 
100 
100 
100 
100 
100 
100 
100 
100 
100 
100 
100 
100 
100 
100 
100 
100 
100 
100 
100 
100 
100 
100 
100 
100 
100 
100 
100 
100 
100 
100 
100 
100 
100 
100 
100 
100 
100 
100 
100 
100 
100 
100 
100 
100 
100 
100 
100 
100 
100 
100 
100 
100 
100 
100 
100 
100 
100 
100 
100 
100 
100 
100 
100 
100 
100 
100 
100 
100 
100 
100 
100 
100 
100 
100 
100 
100 
100 
100 
100 
100 
100 
100 
100 
100 
100 
100 
100 
100 
100 
100 
100 
100 
100 
100 
100 
100 
100 
100 
100 
100 
100 
100 
100 
100 
100 
100 
100 
100 
100 
100 
100 
100 
100 
100 
100 
100 
100 
100 
100 
100 
100 
100 
100 
100 
100 
100 
100 
100 
100 
100 
100 
100 
100 
100 
100 
100 
100 
100 
100 
100 
100 
100 
100 
100 
100 
100 
100 
100 
100 
100 
100 
100 
100 
100 
100 
100 
100 
100 
100 
100 
100 
100 
100 
100 
100 
100 
100 
100 
100 
100 
100 
100 
100 
100 
100 
100 
100 
100 
100 
100 
SCALARS porosity double 1
LOOKUP_TABLE default
0.28 
0.28 
0.28 
0.28 
0.28 
0.28 
0.28 
0.28 
0.28 
0.28 
0.28 
0.28 
0.28 
0.28 
0.28 
0.28 
0.28 
0.28 
0.3 
0.3 
0.3 
0.3 
0.3 
0.3 
0.3 
0.3 
0.3 
0.3 
0.3 
0.3 
0.3 
0.3 
0.3 
0.3 
0.28 
0.28 
0.28 
0.28 
0.28 
0.28 
0.28 
0.28 
0.28 
0.28 
0.28 
0.28 
0.28 
0.28 
0.28 
0.28 
0.28 
0.28 
0.3 
0.3 
0.3 
0.3 
0.3 
0.3 
0.3 
0.3 
0.3 
0.3 
0.3 
0.3 
0.3 
0.3 
0.3 
0.3 
0.28 
0.28 
0.28 
0.28 
0.28 
0.28 
0.28 
0.28 
0.28 
0.28 
0.28 
0.28 
0.28 
0.28 
0.28 
0.28 
0.28 
0.28 
0.3 
0.3 
0.3 
0.3 
0.3 
0.3 
0.3 
0.3 
0.3 
0.3 
0.3 
0.3 
0.3 
0.3 
0.3 
0.3 
0.28 
0.28 
0.28 
0.28 
0.28 
0.28 
0.28 
0.28 
0.28 
0.28 
0.28 
0.28 
0.28 
0.28 
0.28 
0.28 
0.28 
0.28 
0.3 
0.3 
0.3 
0.3 
0.3 
0.3 
0.3 
0.3 
0.3 
0.3 
0.3 
0.3 
0.3 
0.3 
0.3 
0.3 
0.28 
0.28 
0.28 
0.28 
0.28 
0.28 
0.28 
0.28 
0.28 
0.28 
0.28 
0.28 
0.28 
0.28 
0.28 
0.28 
0.28 
0.28 
0.3 
0.3 
0.3 
0.3 
0.3 
0.3 
0.3 
0.3 
0.3 
0.3 
0.3 
0.3 
0.3 
0.3 
0.3 
0.3 
0.28 
0.28 
0.28 
0.28 
0.28 
0.28 
0.28 
0.28 
0.28 
0.28 
0.28 
0.28 
0.28 
0.28 
0.28 
0.28 
0.28 
0.28 
0.3 
0.3 
0.3 
0.3 
0.3 
0.3 
0.3 
0.3 
0.3 
0.3 
0.3 
0.3 
0.3 
0.3 
0.3 
0.3 
0.28 
0.28 
0.28 
0.28 
0.28 
0.28 
0.28 
0.28 
0.28 
0.28 
0.28 
0.28 
0.28 
0.28 
0.28 
0.28 
0.28 
0.28 
0.3 
0.3 
0.3 
0.3 
0.3 
0.3 
0.3 
0.3 
0.3 
0.3 
0.3 
0.3 
0.3 
0.3 
0.3 
0.3 
0.28 
0.28 
0.28 
0.28 
0.28 
0.28 
0.28 
0.28 
0.28 
0.28 
0.28 
0.28 
0.28 
0.28 
0.28 
0.28 
0.28 
0.28 
0.3 
0.3 
0.3 
0.3 
0.3 
0.3 
0.3 
0.3 
0.3 
0.3 
0.3 
0.3 
0.3 
0.3 
0.3 
0.3 
0.28 
0.28 
0.28 
0.28 
0.28 
0.28 
0.28 
0.28 
0.28 
0.28 
0.28 
0.28 
0.28 
0.28 
0.28 
0.28 
0.28 
0.28 
0.3 
0.3 
0.3 
0.3 
0.3 
0.3 
0.3 
0.3 
0.3 
0.3 
0.3 
0.3 
0.3 
0.3 
0.3 
0.3 
0.28 
0.28 
0.28 
0.28 
0.28 
0.28 
0.28 
0.28 
0.28 
0.28 
0.28 
0.28 
0.28 
0.28 
0.28 
0.28 
0.28 
0.28 
0.3 
0.3 
0.3 
0.3 
0.3 
0.3 
0.3 
0.3 
0.3 
0.3 
0.3 
0.3 
0.3 
0.3 
0.3 
0.3 
0.28 
0.28 
0.28 
0.28 
0.28 
0.28 
0.28 
0.28 
0.28 
0.28 
0.28 
0.28 
0.28 
0.28 
0.28 
0.28 
0.28 
0.28 
0.3 
0.3 
0.3 
0.3 
0.3 
0.3 
0.3 
0.3 
0.3 
0.3 
0.3 
0.3 
0.3 
0.3 
0.3 
0.3 
0.28 
0.28 
0.28 
0.28 
0.28 
0.28 
0.28 
0.28 
0.28 
0.28 
0.28 
0.28 
0.28 
0.28 
0.28 
0.28 
0.28 
0.28 
0.3 
0.3 
0.3 
0.3 
0.3 
0.3 
0.3 
0.3 
0.3 
0.3 
0.3 
0.3 
0.3 
0.3 
0.3 
0.3 
0.28 
0.28 
0.28 
0.28 
0.28 
0.28 
0.28 
0.28 
0.28 
0.28 
0.28 
0.28 
0.28 
0.28 
0.28 
0.28 
0.28 
0.28 
0.3 
0.3 
0.3 
0.3 
0.3 
0.3 
0.3 
0.3 
0.3 
0.3 
0.3 
0.3 
0.3 
0.3 
0.3 
0.3 
0.28 
0.28 
0.28 
0.28 
0.28 
0.28 
0.28 
0.28 
0.28 
0.28 
0.28 
0.28 
0.28 
0.28 
0.28 
0.28 
0.28 
0.28 
0.3 
0.3 
0.3 
0.3 
0.3 
0.3 
0.3 
0.3 
0.3 
0.3 
0.3 
0.3 
0.3 
0.3 
0.3 
0.3 
0.28 
0.28 
0.28 
0.28 
0.28 
0.28 
0.28 
0.28 
0.28 
0.28 
0.28 
0.28 
0.28 
0.28 
0.28 
0.28 
0.28 
0.28 
0.3 
0.3 
0.3 
0.3 
0.3 
0.3 
0.3 
0.3 
0.3 
0.3 
0.3 
0.3 
0.3 
0.3 
0.3 
0.3 
0.28 
0.28 
0.28 
0.28 
0.28 
0.28 
0.28 
0.28 
0.28 
0.28 
0.28 
0.28 
0.28 
0.28 
0.28 
0.28 
0.28 
0.28 
0.3 
0.3 
0.3 
0.3 
0.3 
0.3 
0.3 
0.3 
0.3 
0.3 
0.3 
0.3 
0.3 
0.3 
0.3 
0.3 
0.28 
0.28 
0.28 
0.28 
0.28 
0.28 
0.28 
0.28 
0.28 
0.28 
0.28 
0.28 
0.28 
0.28 
0.28 
0.28 
0.28 
0.28 
0.3 
0.3 
0.3 
0.3 
0.3 
0.3 
0.3 
0.3 
0.3 
0.3 
0.3 
0.3 
0.3 
0.3 
0.3 
0.3 
SCALARS P_DAY=0 double 1
LOOKUP_TABLE default
5380 
5384 
5380 
5384 
5380 
5384 
5380 
5384 
5380 
5384 
5380 
5384 
5380 
5384 
5380 
5384 
5380 
5384 
5380 
5384 
5380 
5384 
5380 
5384 
5380 
5384 
5380 
5384 
5380 
5384 
5380 
5384 
5380 
5384 
5380 
5384 
5380 
5384 
5380 
5384 
5380 
5384 
5380 
5384 
5380 
5384 
5380 
5384 
5380 
5384 
5380 
5384 
5380 
5384 
5380 
5384 
5380 
5384 
5380 
5384 
5380 
5384 
5380 
5384 
5380 
5384 
5380 
5384 
5380 
5384 
5380 
5384 
5380 
5384 
5380 
5384 
5380 
5384 
5380 
5384 
5380 
5384 
5380 
5384 
5380 
5384 
5380 
5384 
5380 
5384 
5380 
5384 
5380 
5384 
5380 
5384 
5380 
5384 
5380 
5384 
5380 
5384 
5380 
5384 
5380 
5384 
5380 
5384 
5380 
5384 
5380 
5384 
5380 
5384 
5380 
5384 
5380 
5384 
5380 
5384 
5380 
5384 
5380 
5384 
5380 
5384 
5380 
5384 
5380 
5384 
5380 
5384 
5380 
5384 
5380 
5384 
5380 
5384 
5380 
5384 
5380 
5384 
5380 
5384 
5380 
5384 
5380 
5384 
5380 
5384 
5380 
5384 
5380 
5384 
5380 
5384 
5380 
5384 
5380 
5384 
5380 
5384 
5380 
5384 
5380 
5384 
5380 
5384 
5380 
5384 
5380 
5384 
5380 
5384 
5380 
5384 
5380 
5384 
5380 
5384 
5380 
5384 
5380 
5384 
5380 
5384 
5380 
5384 
5380 
5384 
5380 
5384 
5380 
5384 
5380 
5384 
5380 
5384 
5380 
5384 
5380 
5384 
5380 
5384 
5380 
5384 
5380 
5384 
5380 
5384 
5380 
5384 
5380 
5384 
5380 
5384 
5380 
5384 
5380 
5384 
5380 
5384 
5380 
5384 
5380 
5384 
5380 
5384 
5380 
5384 
5380 
5384 
5380 
5384 
5380 
5384 
5380 
5384 
5380 
5384 
5380 
5384 
5380 
5384 
5380 
5384 
5380 
5384 
5380 
5384 
5380 
5384 
5380 
5384 
5380 
5384 
5380 
5384 
5380 
5384 
5380 
5384 
5380 
5384 
5380 
5384 
5380 
5384 
5380 
5384 
5380 
5384 
5380 
5384 
5380 
5384 
5380 
5384 
5380 
5384 
5380 
5384 
5380 
5384 
5380 
5384 
5380 
5384 
5380 
5384 
5380 
5384 
5380 
5384 
5380 
5384 
5380 
5384 
5380 
5384 
5380 
5384 
5380 
5384 
5380 
5384 
5380 
5384 
5380 
5384 
5380 
5384 
5380 
5384 
5380 
5384 
5380 
5384 
5380 
5384 
5380 
5384 
5380 
5384 
5380 
5384 
5380 
5384 
5380 
5384 
5380 
5384 
5380 
5384 
5380 
5384 
5380 
5384 
5380 
5384 
5380 
5384 
5380 
5384 
5380 
5384 
5380 
5384 
5380 
5384 
5380 
5384 
5380 
5384 
5380 
5384 
5380 
5384 
5380 
5384 
5380 
5384 
5380 
5384 
5380 
5384 
5380 
5384 
5380 
5384 
5380 
5384 
5380 
5384 
5380 
5384 
5380 
5384 
5380 
5384 
5380 
5384 
5380 
5384 
5380 
5384 
5380 
5384 
5380 
5384 
5380 
5384 
5380 
5384 
5380 
5384 
5380 
5384 
5380 
5384 
5380 
5384 
5380 
5384 
5380 
5384 
5380 
5384 
5380 
5384 
5380 
5384 
5380 
5384 
5380 
5384 
5380 
5384 
5380 
5384 
5380 
5384 
5380 
5384 
5380 
5384 
5380 
5384 
5380 
5384 
5380 
5384 
5380 
5384 
5380 
5384 
5380 
5384 
5380 
5384 
5380 
5384 
5380 
5384 
5380 
5384 
5380 
5384 
5380 
5384 
5380 
5384 
5380 
5384 
5380 
5384 
5380 
5384 
5380 
5384 
5380 
5384 
5380 
5384 
5380 
5384 
5380 
5384 
5380 
5384 
5380 
5384 
5380 
5384 
5380 
5384 
5380 
5384 
5380 
5384 
5380 
5384 
5380 
5384 
5380 
5384 
5380 
5384 
5380 
5384 
5380 
5384 
5380 
5384 
5380 
5384 
5380 
5384 
5380 
5384 
5380 
5384 
5380 
5384 
5380 
5384 
5380 
5384 
5380 
5384 
5380 
5384 
5380 
5384 
5380 
5384 
5380 
5384 
5380 
5384 
5380 
5384 
5380 
5384 
5380 
5384 
5380 
5384 
5380 
5384 
5380 
5384 
5380 
5384 
5380 
5384 
5380 
5384 
5380 
5384 
5380 
5384 
5380 
5384 
5380 
5384 
5380 
5384 
5380 
5384 
5380 
5384 
5380 
5384 
5380 
5384 
5380 
5384 
5380 
5384 
5380 
5384 
5380 
5384 
5380 
5384 
5380 
5384 
5380 
5384 
5380 
5384 
5380 
5384 
5380 
5384 
5380 
5384 
SCALARS P_DAY=365 double 1
LOOKUP_TABLE default
3911 
3915 
3911 
3915 
3910 
3914 
3910 
3914 
3910 
3914 
3909 
3913 
3909 
3913 
3908 
3912 
3908 
3912 
3907 
3911 
3907 
3911 
3906 
3910 
3906 
3910 
3905 
3909 
3905 
3909 
3905 
3909 
3905 
3909 
3911 
3915 
3910 
3914 
3910 
3914 
3910 
3914 
3910 
3914 
3909 
3913 
3909 
3913 
3908 
3912 
3908 
3912 
3907 
3911 
3907 
3911 
3906 
3910 
3906 
3910 
3905 
3909 
3905 
3909 
3905 
3909 
3905 
3909 
3910 
3914 
3910 
3914 
3910 
3914 
3910 
3914 
3909 
3913 
3909 
3913 
3908 
3912 
3908 
3912 
3907 
3911 
3907 
3911 
3906 
3910 
3906 
3910 
3905 
3909 
3905 
3909 
3904 
3908 
3904 
3908 
3904 
3908 
3910 
3914 
3910 
3914 
3910 
3914 
3909 
3913 
3909 
3913 
3909 
3913 
3908 
3912 
3907 
3911 
3907 
3911 
3906 
3910 
3905 
3909 
3905 
3909 
3904 
3908 
3904 
3908 
3903 
3907 
3903 
3907 
3903 
3907 
3910 
3914 
3910 
3914 
3909 
3913 
3909 
3913 
3909 
3913 
3908 
3912 
3907 
3911 
3907 
3911 
3906 
3910 
3905 
3909 
3905 
3909 
3904 
3908 
3903 
3907 
3903 
3907 
3902 
3906 
3902 
3906 
3902 
3906 
3909 
3913 
3909 
3913 
3909 
3913 
3908 
3912 
3908 
3912 
3907 
3911 
3907 
3911 
3906 
3910 