# vtk DataFile Version 3.0
MOAB 5.4.1
ASCII
DATASET UNSTRUCTURED_GRID
POINTS 200 double
0 0 0
160 0 0
320 0 0
480 0 0
640 0 0
720 0 0
880 0 0
1040 0 0
1200 0 0
1360 0 0
0 160 0
160 160 0
320 160 0
480 160 0
640 160 0
720 160 0
880 160 0
1040 160 0
1200 160 0
1360 160 0
0 320 0
160 320 0
320 320 0
480 320 0
640 320 0
720 320 0
880 320 0
1040 320 0
1200 320 0
1360 320 0
0 480 0
160 480 0
320 480 0
480 480 0
640 480 0
720 480 0
880 480 0
1040 480 0
1200 480 0
1360 480 0
0 640 0
160 640 0
320 640 0
480 640 0
640 640 0
720 640 0
880 640 0
1040 640 0
1200 640 0
1360 640 0
0 720 0
160 720 0
320 720 0
480 720 0
640 720 0
720 720 0
880 720 0
1040 720 0
1200 720 0
1360 720 0
0 880 0
160 880 0
320 880 0
480 880 0
640 880 0
720 880 0
880 880 0
1040 880 0
1200 880 0
1360 880 0
0 1040 0
160 1040 0
320 1040 0
480 1040 0
640 1040 0
720 1040 0
880 1040 0
1040 1040 0
1200 1040 0
1360 1040 0
0 1200 0
160 1200 0
320 1200 0
480 1200 0
640 1200 0
720 1200 0
880 1200 0
1040 1200 0
1200 1200 0
1360 1200 0
0 1360 0
160 1360 0
320 1360 0
480 1360 0
640 1360 0
720 1360 0
880 1360 0
1040 1360 0
1200 1360 0
1360 1360 0
0 0 -30
160 0 -30
320 0 -30
480 0 -30
640 0 -30
720 0 -30
880 0 -30
1040 0 -30
1200 0 -30
1360 0 -30
0 160 -30
160 160 -30
320 160 -30
480 160 -30
640 160 -30
720 160 -30
880 160 -30
1040 160 -30
1200 160 -30
1360 160 -30
0 320 -30
160 320 -30
320 320 -30
480 320 -30
640 320 -30
720 320 -30
880 320 -30
1040 320 -30
1200 320 -30
1360 320 -30
0 480 -30
160 480 -30
320 480 -30
480 480 -30
640 480 -30
720 480 -30
880 480 -30
1040 480 -30
1200 480 -30
1360 480 -30
0 640 -30
160 640 -30
320 640 -30
480 640 -30
640 640 -30
720 640 -30
880 640 -30
1040 640 -30
1200 640 -30
1360 640 -30
0 720 -30
160 720 -30
320 720 -30
480 720 -30
640 720 -30
720 720 -30
880 720 -30
1040 720 -30
1200 720 -30
1360 720 -30
0 880 -30
160 880 -30
320 880 -30
480 880 -30
640 880 -30
720 880 -30
880 880 -30
1040 880 -30
1200 880 -30
1360 880 -30
0 1040 -30
160 1040 -30
320 1040 -30
480 1040 -30
640 1040 -30
720 1040 -30
880 1040 -30
1040 1040 -30
1200 1040 -30
1360 1040 -30
0 1200 -30
160 1200 -30
320 1200 -30
480 1200 -30
640 1200 -30
720 1200 -30
880 1200 -30
1040 1200 -30
1200 1200 -30
1360 1200 -30
0 1360 -30
160 1360 -30
320 1360 -30
480 1360 -30
640 1360 -30
720 1360 -30
880 1360 -30
1040 1360 -30
1200 1360 -30
1360 1360 -30
CELLS 81 729
8 0 1 11 10 100 101 111 110
8 10 11 21 20 110 111 121 120
8 20 21 31 30 120 121 131 130
8 30 31 41 40 130 131 141 140
8 40 41 51 50 140 141 151 150
8 50 51 61 60 150 151 161 160
8 60 61 71 70 160 161 171 170
8 70 71 81 80 170 171 181 180
8 80 81 91 90 180 181 191 190
8 1 2 12 11 101 102 112 111
8 11 12 22 21 111 112 122 121
8 21 22 32 31 121 122 132 131
8 31 32 42 41 131 132 142 141
8 41 42 52 51 141 142 152 151
8 51 52 62 61 151 152 162 161
8 61 62 72 71 161 162 172 171
8 71 72 82 81 171 172 182 181
8 81 82 92 91 181 182 192 191
8 2 3 13 12 102 103 113 112
8 12 13 23 22 112 113 123 122
8 22 23 33 32 122 123 133 132
8 32 33 43 42 132 133 143 142
8 42 43 53 52 142 143 153 152
8 52 53 63 62 152 153 163 162
8 62 63 73 72 162 163 173 172
8 72 73 83 82 172 173 183 182
8 82 83 93 92 182 183 193 192
8 3 4 14 13 103 104 114 113
8 13 14 24 23 113 114 124 123
8 23 24 34 33 123 124 134 133
8 33 34 44 43 133 134 144 143
8 43 44 54 53 143 144 154 153
8 53 54 64 63 153 154 164 163
8 63 64 74 73 163 164 174 173
8 73 74 84 83 173 174 184 183
8 83 84 94 93 183 184 194 193
8 4 5 15 14 104 105 115 114
8 14 15 25 24 114 115 125 124
8 24 25 35 34 124 125 135 134
8 34 35 45 44 134 135 145 144
8 44 45 55 54 144 145 155 154
8 54 55 65 64 154 155 165 164
8 64 65 75 74 164 165 175 174
8 74 75 85 84 174 175 185 184
8 84 85 95 94 184 185 195 194
8 5 6 16 15 105 106 116 115
8 15 16 26 25 115 116 126 125
8 25 26 36 35 125 126 136 135
8 35 36 46 45 135 136 146 145
8 45 46 56 55 145 146 156 155
8 55 56 66 65 155 156 166 165
8 65 66 76 75 165 166 176 175
8 75 76 86 85 175 176 186 185
8 85 86 96 95 185 186 196 195
8 6 7 17 16 106 107 117 116
8 16 17 27 26 116 117 127 126
8 26 27 37 36 126 127 137 136
8 36 37 47 46 136 137 147 146
8 46 47 57 56 146 147 157 156
8 56 57 67 66 156 157 167 166
8 66 67 77 76 166 167 177 176
8 76 77 87 86 176 177 187 186
8 86 87 97 96 186 187 197 196
8 7 8 18 17 107 108 118 117
8 17 18 28 27 117 118 128 127
8 27 28 38 37 127 128 138 137
8 37 38 48 47 137 138 148 147
8 47 48 58 57 147 148 158 157
8 57 58 68 67 157 158 168 167
8 67 68 78 77 167 168 178 177
8 77 78 88 87 177 178 188 187
8 87 88 98 97 187 188 198 197
8 8 9 19 18 108 109 119 118
8 18 19 29 28 118 119 129 128
8 28 29 39 38 128 129 139 138
8 38 39 49 48 138 139 149 148
8 48 49 59 58 148 149 159 158
8 58 59 69 68 158 159 169 168
8 68 69 79 78 168 169 179 178
8 78 79 89 88 178 179 189 188
8 88 89 99 98 188 189 199 198
CELL_TYPES 81
12
12
12
12
12
12
12
12
12
12
12
12
12
12
12
12
12
12
12
12
12
12
12
12
12
12
12
12
12
12
12
12
12
12
12
12
12
12
12
12
12
12
12
12
12
12
12
12
12
12
12
12
12
12
12
12
12
12
12
12
12
12
12
12
12
12
12
12
12
12
12
12
12
12
12
12
12
12
12
12
12
POINT_DATA 200
SCALARS GLOBAL_ID int 1
LOOKUP_TABLE default
-1 
-1 
-1 
-1 
-1 
-1 
-1 
-1 
-1 
-1 
-1 
-1 
-1 
-1 
-1 
-1 
-1 
-1 
-1 
-1 
-1 
-1 
-1 
-1 
-1 
-1 
-1 
-1 
-1 
-1 
-1 
-1 
-1 
-1 
-1 
-1 
-1 
-1 
-1 
-1 
-1 
-1 
-1 
-1 
-1 
-1 
-1 
-1 
-1 
-1 
-1 
-1 
-1 
-1 
-1 
-1 
-1 
-1 
-1 
-1 
-1 
-1 
-1 
-1 
-1 
-1 
-1 
-1 
-1 
-1 
-1 
-1 
-1 
-1 
-1 
-1 
-1 
-1 
-1 
-1 
-1 
-1 
-1 
-1 
-1 
-1 
-1 
-1 
-1 
-1 
-1 
-1 
-1 
-1 
-1 
-1 
-1 
-1 
-1 
-1 
-1 
-1 
-1 
-1 
-1 
-1 
-1 
-1 
-1 
-1 
-1 
-1 
-1 
-1 
-1 
-1 
-1 
-1 
-1 
-1 
-1 
-1 
-1 
-1 
-1 
-1 
-1 
-1 
-1 
-1 
-1 
-1 
-1 
-1 
-1 
-1 
-1 
-1 
-1 
-1 
-1 
-1 
-1 
-1 
-1 
-1 
-1 
-1 
-1 
-1 
-1 
-1 
-1 
-1 
-1 
-1 
-1 
-1 
-1 
-1 
-1 
-1 
-1 
-1 
-1 
-1 
-1 
-1 
-1 
-1 
-1 
-1 
-1 
-1 
-1 
-1 
-1 
-1 
-1 
-1 
-1 
-1 
-1 
-1 
-1 
-1 
-1 
-1 
-1 
-1 
-1 
-1 
-1 
-1 
-1 
-1 
-1 
-1 
-1 
-1 
CELL_DATA 81
SCALARS GLOBAL_ID int 1
LOOKUP_TABLE default
-1 
-1 
-1 
-1 
-1 
-1 
-1 
-1 
-1 
-1 
-1 
-1 
-1 
-1 
-1 
-1 
-1 
-1 
-1 
-1 
-1 
-1 
-1 
-1 
-1 
-1 
-1 
-1 
-1 
-1 
-1 
-1 
-1 
-1 
-1 
-1 
-1 
-1 
-1 
-1 
-1 
-1 
-1 
-1 
-1 
-1 
-1 
-1 
-1 
-1 
-1 
-1 
-1 
-1 
-1 
-1 
-1 
-1 
-1 
-1 
-1 
-1 
-1 
-1 
-1 
-1 
-1 
-1 
-1 
-1 
-1 
-1 
-1 
-1 
-1 
-1 
-1 
-1 
-1 
-1 
-1 
SCALARS id int 1
LOOKUP_TABLE default
0 
1 
2 
3 
4 
5 
6 
7 
8 
9 
10 
11 
12 
13 
14 
15 
16 
17 
18 
19 
20 
21 
22 
23 
24 
25 
26 
27 
28 
29 
30 
31 
32 
33 
34 
35 
36 
37 
38 
39 
40 
41 
42 
43 
44 
45 
46 
47 
48 
49 
50 
51 
52 
53 
54 
55 
56 
57 
58 
59 
60 
61 
62 
63 
64 
65 
66 
67 
68 
69 
70 
71 
72 
73 
74 
75 
76 
77 
78 
79 
80 
SCALARS permeability double 1
LOOKUP_TABLE default
100 
100 
100 
100 
100 
100 
100 
100 
100 
100 
100 
100 
100 
100 
100 
100 
100 
100 
100 
100 
100 
100 
100 
100 
100 
100 
100 
100 
100 
100 
100 
100 
100 
100 
100 
100 
100 
100 
100 
100 
100 
100 
100 
100 
100 
100 
100 
100 
100 
100 
100 
100 
100 
100 
100 
100 
100 
100 
100 
100 
100 
100 
100 
100 
100 
100 
100 
100 
100 
100 
100 
100 
100 
100 
100 
100 
100 
100 
100 
100 
100 
SCALARS porosity double 1
LOOKUP_TABLE default
0.28 
0.28 
0.28 
0.28 
0.28 
0.28 
0.28 
0.28 
0.28 
0.28 
0.28 
0.28 
0.28 
0.28 
0.28 
0.28 
0.28 
0.28 
0.28 
0.28 
0.28 
0.28 
0.28 
0.28 
0.28 
0.28 
0.28 
0.28 
0.28 
0.28 
0.28 
0.28 
0.28 
0.28 
0.28 
0.28 
0.28 
0.28 
0.28 
0.28 
0.28 
0.28 
0.28 
0.28 
0.28 
0.3 
0.3 
0.3 
0.3 
0.3 
0.3 
0.3 
0.3 
0.3 
0.3 
0.3 
0.3 
0.3 
0.3 
0.3 
0.3 
0.3 
0.3 
0.3 
0.3 
0.3 
0.3 
0.3 
0.3 
0.3 
0.3 
0.3 
0.3 
0.3 
0.3 
0.3 
0.3 
0.3 
0.3 
0.3 
0.3 
SCALARS P_DAY=0 double 1
LOOKUP_TABLE default
5382 
5382 
5382 
5382 
5382 
5382 
5382 
5382 
5382 
5382 
5382 
5382 
5382 
5382 
5382 
5382 
5382 
5382 
5382 
5382 
5382 
5382 
5382 
5382 
5382 
5382 
5382 
5382 
5382 
5382 
5382 
5382 
5382 
5382 
5382 
5382 
5382 
5382 
5382 
5382 
5382 
5382 
5382 
5382 
5382 
5382 
5382 
5382 
5382 
5382 
5382 
5382 
5382 
5382 
5382 
5382 
5382 
5382 
5382 
5382 
5382 
5382 
5382 
5382 
5382 
5382 
5382 
5382 
5382 
5382 
5382 
5382 
5382 
5382 
5382 
5382 
5382 
5382 
5382 
5382 
5382 
SCALARS P_DAY=365 double 1
LOOKUP_TABLE default
2479 
2479 
2478 
2476 
2474 
2473 
2471 
2469 
2469 
2479 
2478 
2477 
2475 
2473 
2471 
2469 
2467 
2466 
2478 
2477 
2475 
2473 
2471 
2468 
2466 
2463 
2462 
2476 
2475 
2473 
2470 
2467 
2464 
2460 
2457 
2454 
2475 
2473 
2471 
2467 
2464 
2460 
2454 
2449 
2446 
2473 
2472 
2469 
2464 
2460 
2455 
2448 
2441 
2436 
2472 
2470 
2466 
2461 
2455 
2448 
2437 
2425 
2416 
2470 
2468 
2464 
2457 
2450 
2441 
2425 
2405 
2384 
2470 
2467 
2463 
2455 
2447 
2436 
2416 
2384 
2325 
SCALARS P_DAY=730 double 1
LOOKUP_TABLE default
4255 
4170 
4108 
4062 
4051 
4044 
4037 
4032 
4030 
4170 
4129 
4082 
4057 
4048 
4042 
4035 
4031 
4029 
4108 
4082 
4062 
4050 
4044 
4038 
4032 
4028 
4026 
4062 
4057 
4050 
4043 
4038 
4033 
4028 
4024 
4022 
4051 
4048 
4043 
4038 
4033 
4029 
4024 
4021 
4019 
4043 
4041 
4038 
4033 
4029 
4025 
4020 
4017 
4014 
4036 
4035 
4032 
4028 
4024 
4020 
4015 
4011 
4007 
4032 
4030 
4028 
4024 
4020 
4016 
4011 
4004 
3998 
4030 
4028 
4026 
4022 
4018 
4014 
4007 
3998 
3983 
SCALARS P_DAY=1095 double 1
LOOKUP_TABLE default
5087 
5004 
4951 
4906 
4879 
4862 
4854 
4849 
4846 
5004 
4970 
4930 
4891 
4870 
4859 
4852 
4847 
4844 
4951 
4930 
4901 
4871 
4861 
4854 
4847 
4842 
4840 
4906 
4891 
4871 
4860 
4854 
4848 
4841 
4836 
4834 
4879 
4869 
4861 
4854 
4848 
4843 
4836 
4831 
4828 
4862 
4859 
4854 
4848 
4842 
4837 
4830 
4824 
4820 
4853 
4851 
4847 
4841 
4836 
4830 
4822 
4814 
4808 
4848 
4846 
4842 
4836 
4830 
4824 
4813 
4801 
4789 
4846 
4844 
4840 
4834 
4827 
4820 
4808 
4789 
4759 
SCALARS P_DAY=1460 double 1
LOOKUP_TABLE default
5934 
5855 
5804 
5765 
5738 
5715 
5698 
5692 
5689 
5855 
5822 
5787 
5752 
5729 
5707 
5695 
5690 
5687 
5804 
5787 
5761 
5732 
5712 
5699 
5691 
5686 
5683 
5764 
5752 
5732 
5708 
5698 
5691 
5684 
5679 
5676 
5738 
5729 
5712 
5698 
5691 
5685 
5678 
5673 
5670 
5714 
5707 
5698 
5691 
5685 
5680 
5672 
5666 
5662 
5697 
5695 
5690 
5684 
5678 
5672 
5663 
5655 
5649 
5692 
5690 
5685 
5679 
5673 
5666 
5655 
5642 
5629 
5689 
5687 
5683 
5676 
5670 
5662 
5649 
5629 
5598 
SCALARS P_DAY=1825 double 1
LOOKUP_TABLE default
5999 
5920 
5870 
5832 
5807 
5784 
5758 
5748 
5745 
5920 
5887 
5853 
5820 
5797 
5776 
5753 
5745 
5742 
5869 
5853 
5828 
5801 
5781 
5760 
5745 
5739 
5736 
5831 
5820 
5801 
5778 
5760 
5745 
5736 
5730 
5727 
5807 
5797 
5780 
5760 
5746 
5737 
5728 
5722 
5718 
5784 
5776 
5760 
5745 
5737 
5730 
5720 
5712 
5707 
5758 
5752 
5745 
5736 
5728 
5720 
5709 
5697 
5688 
5748 
5745 
5739 
5730 
5722 
5712 
5697 
5678 
5660 
5745 
5742 
5736 
5727 
5718 
5707 
5688 
5660 
5613 
SCALARS P_DAY=2190 double 1
LOOKUP_TABLE default
6056 
5978 
5927 
5890 
5867 
5846 
5822 
5804 
5800 
5978 
5944 
5911 
5879 
5858 
5838 
5814 
5800 
5796 
5927 
5910 
5887 
5862 
5843 
5824 
5802 
5793 
5790 
5890 
5879 
5862 
5840 
5823 
5806 
5789 
5783 
5780 
5867 
5858 
5843 
5823 
5807 
5792 
5781 
5774 
5771 
5846 
5838 
5824 
5805 
5791 
5782 
5772 
5765 
5760 
5821 
5813 
5801 
5789 
5781 
5773 
5761 
5749 
5740 
5804 
5800 
5793 
5783 
5774 
5765 
5749 
5731 
5712 
5800 
5796 
5790 
5780 
5771 
5760 
5740 
5712 
5665 
SCALARS P_DAY=2555 double 1
LOOKUP_TABLE default
6115 
6037 
5986 
5950 
5928 
5908 
5885 
5866 
5858 
6037 
6004 
5970 
5940 
5920 
5901 
5879 
5860 
5854 
5986 
5970 
5947 
5923 
5905 
5888 
5866 
5850 
5846 
5950 
5939 
5923 
5903 
5887 
5870 
5849 
5839 
5836 
5927 
5920 
5905 
5886 
5871 
5855 
5836 
5829 
5825 
5908 
5901 
5887 
5870 
5855 
5838 
5826 
5819 
5814 
5884 
5878 
5865 
5848 
5836 
5826 
5814 
5803 
5794 
5865 
5859 
5850 
5839 
5829 
5819 
5803 
5784 
5766 
5858 
5854 
5846 
5836 
5825 
5814 
5794 
5766 
5718 
SCALARS P_DAY=2920 double 1
LOOKUP_TABLE default
6176 
6098 
6048 
6012 
5990 
5972 
5950 
5932 
5921 
6098 
6065 
6031 
6002 
5983 
5965 
5944 
5926 
5916 
6048 
6031 
6009 
5986 
5969 
5952 
5932 
5913 
5907 
6012 
6002 
5986 
5967 
5951 
5935 
5915 
5898 
5894 
5990 
5983 
5969 
5951 
5936 
5920 
5900 
5886 
5882 
5972 
5965 
5952 
5935 
5920 
5905 
5883 
5874 
5870 
5949 
5943 
5931 
5914 
5899 
5883 
5868 
5857 
5849 
5931 
5924 
5912 
5897 
5886 
5874 
5858 
5839 
5821 
5920 
5915 
5906 
5894 
5882 
5870 
5849 
5821 
5773 
SCALARS P_DAY=3285 double 1
LOOKUP_TABLE default
6240 
6162 
6112 
6076 
6056 
6038 
6018 
6001 
5989 
6162 
6129 
6096 
6066 
6048 
6031 
6011 
5995 
5983 
6112 
6096 
6074 
6051 
6035 
6019 
5999 
5982 
5971 
6076 
6066 
6051 
6032 
6017 
6002 
5983 
5964 
5956 
6055 
6048 
6035 
6017 
6003 
5987 
5967 
5948 
5942 
6038 
6031 
6019 
6002 
5987 
5972 
5950 
5932 
5928 
6017 
6010 
5998 
5982 
5966 
5950 
5927 
5913 
5905 
6000 
5993 
5980 
5963 
5948 
5932 
5913 
5894 
5876 
5988 
5981 
5970 
5956 
5942 
5928 
5906 
5876 
5829 
SCALARS So_DAY=0 double 1
LOOKUP_TABLE default
0.88 
0.88 
0.88 
0.88 
0.88 
0.88 
0.88 
0.88 
0.88 
0.88 
0.88 
0.88 
0.88 
0.88 
0.88 
0.88 
0.88 
0.88 
0.88 
0.88 
0.88 
0.88 
0.88 
0.88 
0.88 
0.88 
0.88 
0.88 
0.88 
0.88 
0.88 
0.88 
0.88 
0.88 
0.88 
0.88 
0.88 
0.88 
0.88 
0.88 
0.88 
0.88 
0.88 
0.88 
0.88 
0.88 
0.88 
0.88 
0.88 
0.88 
0.88 
0.88 
0.88 
0.88 
0.88 
0.88 
0.88 
0.88 
0.88 
0.88 
0.88 
0.88 
0.88 
0.88 
0.88 
0.88 
0.88 
0.88 
0.88 
0.88 
0.88 
0.88 
0.88 
0.88 
0.88 
0.88 
0.88 
0.88 
0.88 
0.88 
0.88 
SCALARS So_DAY=365 double 1
LOOKUP_TABLE default
0.8751 
0.875 
0.8749 
0.8747 
0.8745 
0.8743 
0.8741 
0.8739 
0.8738 
0.875 
0.8749 
0.8748 
0.8745 
0.8744 
0.8742 
0.8739 
0.8737 
0.8736 
0.8749 
0.8748 
0.8746 
0.8743 
0.8741 
0.8738 
0.8735 
0.8732 
0.8731 
0.8747 
0.8746 
0.8743 
0.874 
0.8737 
0.8733 
0.8729 
0.8724 
0.8722 
0.8745 
0.8744 
0.8741 
0.8737 
0.8733 
0.8728 
0.8722 
0.8716 
0.8712 
0.8744 
0.8742 
0.8739 
0.8734 
0.8728 
0.8723 
0.8714 
0.8706 
0.8701 
0.8742 
0.874 
0.8736 
0.8729 
0.8722 
0.8715 
0.8702 
0.8688 
0.8676 
0.874 
0.8738 
0.8733 
0.8725 
0.8717 
0.8706 
0.8688 
0.8663 
0.8635 
0.8739 
0.8737 
0.8731 
0.8723 
0.8713 
0.8701 
0.8677 
0.8635 
0.8555 
SCALARS So_DAY=730 double 1
LOOKUP_TABLE default
0.3084 
0.3754 
0.529 
0.803 
0.8741 
0.8794 
0.8795 
0.8795 
0.8795 
0.3754 
0.4761 
0.7229 
0.8693 
0.879 
0.8795 
0.8795 
0.8795 
0.8795 
0.5288 
0.7228 
0.862 
0.8791 
0.8795 
0.8795 
0.8795 
0.8795 
0.8795 
0.8027 
0.8692 
0.8791 
0.8795 
0.8795 
0.8795 
0.8795 
0.8795 
0.8795 
0.874 
0.879 
0.8795 
0.8795 
0.8795 
0.8795 
0.8795 
0.8795 
0.8795 
0.8794 
0.8795 
0.8795 
0.8795 
0.8795 
0.8795 
0.8795 
0.8795 
0.8795 
0.8795 
0.8795 
0.8795 
0.8795 
0.8795 
0.8795 
0.8795 
0.8795 
0.8795 
0.8795 
0.8795 
0.8795 
0.8795 
0.8795 
0.8795 
0.8795 
0.8791 
0.8782 
0.8795 
0.8795 
0.8795 
0.8795 
0.8795 
0.8795 
0.8795 
0.8782 
0.8762 
SCALARS So_DAY=1095 double 1
LOOKUP_TABLE default
0.2984 
0.3193 
0.3858 
0.5069 
0.6691 
0.8614 
0.8793 
0.8798 
0.8798 
0.3193 
0.3668 
0.4419 
0.6274 
0.8113 
0.8765 
0.8797 
0.8798 
0.8798 
0.3858 
0.4418 
0.5789 
0.8123 
0.8723 
0.8796 
0.8798 
0.8798 
0.8798 
0.5066 
0.627 
0.8122 
0.8748 
0.8794 
0.8798 
0.8798 
0.8798 
0.8798 
0.6682 
0.8109 
0.8723 
0.8794 
0.8798 
0.8798 
0.8798 
0.8798 
0.8798 
0.8624 
0.8767 
0.8796 
0.8798 
0.8798 
0.8798 
0.8798 
0.8798 
0.8798 
0.8794 
0.8797 
0.8798 
0.8798 
0.8798 
0.8798 
0.8798 
0.8798 
0.8798 
0.8798 
0.8798 
0.8798 
0.8798 
0.8798 
0.8798 
0.8798 
0.8794 
0.8785 
0.8798 
0.8798 
0.8798 
0.8798 
0.8798 
0.8798 
0.8798 
0.8785 
0.8765 
SCALARS So_DAY=1460 double 1
LOOKUP_TABLE default
0.2935 
0.3033 
0.3429 
0.4087 
0.4568 
0.6865 
0.8626 
0.8796 
0.8801 
0.3033 
0.3292 
0.3787 
0.4529 
0.5302 
0.7898 
0.8752 
0.88 
0.8801 
0.3428 
0.3786 
0.4312 
0.5559 
0.7101 
0.8646 
0.8796 
0.8801 
0.8801 
0.4085 
0.4526 
0.5557 
0.764 
0.8574 
0.8789 
0.8801 
0.8801 
0.8801 
0.4562 
0.5296 
0.7096 
0.8574 
0.8773 
0.88 
0.8801 
0.8801 
0.8801 
0.6956 
0.7951 
0.8657 
0.879 
0.88 
0.8801 
0.8801 
0.8801 
0.8801 
0.8647 
0.8759 
0.8796 
0.8801 
0.8801 
0.8801 
0.8801 
0.8801 
0.8801 
0.8797 
0.88 
0.8801 
0.8801 
0.8801 
0.8801 
0.8801 
0.8797 
0.8788 
0.8801 
0.8801 
0.8801 
0.8801 
0.8801 
0.8801 
0.8801 
0.8788 
0.8768 
SCALARS So_DAY=1825 double 1
LOOKUP_TABLE default
0.2931 
0.3009 
0.3253 
0.3744 
0.3977 
0.5168 
0.7565 
0.8722 
0.88 
0.3009 
0.315 
0.3513 
0.3977 
0.4277 
0.5822 
0.8182 
0.8773 
0.8801 
0.3252 
0.3512 
0.3894 
0.4433 
0.4926 
0.7126 
0.8642 
0.8796 
0.8801 
0.3742 
0.3976 
0.4433 
0.5414 
0.6505 
0.8436 
0.8781 
0.8801 
0.8801 
0.3975 
0.4273 
0.4925 
0.6507 
0.798 
0.873 
0.8798 
0.8801 
0.8801 
0.5264 
0.594 
0.724 
0.8469 
0.8737 
0.8797 
0.8801 
0.8801 
0.8801 
0.7709 
0.8268 
0.8666 
0.8784 
0.8798 
0.8801 
0.8801 
0.8801 
0.8801 
0.8738 
0.8779 
0.8797 
0.8801 
0.8801 
0.8801 
0.8801 
0.8797 
0.8788 
0.88 
0.8801 
0.8801 
0.8801 
0.8801 
0.8801 
0.8801 
0.8788 
0.8768 
SCALARS So_DAY=2190 double 1
LOOKUP_TABLE default
0.2928 
0.3001 
0.3162 
0.3532 
0.37 
0.4427 
0.6032 
0.8304 
0.8786 
0.3001 
0.3085 
0.3344 
0.3695 
0.393 
0.4746 
0.6688 
0.8555 
0.8795 
0.3161 
0.3344 
0.3658 
0.4008 
0.4232 
0.5372 
0.7697 
0.8727 
0.88 
0.353 
0.3693 
0.4007 
0.4502 
0.4882 
0.6676 
0.8501 
0.8788 
0.8801 
0.3697 
0.3928 
0.4229 
0.4881 
0.5477 
0.7788 
0.8713 
0.8798 
0.8801 
0.4494 
0.4829 
0.5491 
0.6825 
0.7886 
0.8683 
0.8793 
0.8801 
0.8801 
0.623 
0.6901 
0.7859 
0.8555 
0.873 
0.8794 
0.8801 
0.8801 
0.8801 
0.8405 
0.8609 
0.8744 
0.8791 
0.8799 
0.8801 
0.8801 
0.8797 
0.8788 
0.8791 
0.8797 
0.8801 
0.8801 
0.8801 
0.8801 
0.8801 
0.8788 
0.8768 
SCALARS So_DAY=2555 double 1
LOOKUP_TABLE default
0.2925 
0.2998 
0.3114 
0.3391 
0.35 
0.4061 
0.5067 
0.7299 
0.8704 
0.2998 
0.3055 
0.324 
0.3494 
0.3709 
0.4254 
0.5431 
0.7787 
0.8753 
0.3113 
0.324 
0.349 
0.3772 
0.3955 
0.4585 
0.6117 
0.8324 
0.8787 
0.339 
0.3492 
0.377 
0.41 
0.429 
0.5207 
0.7285 
0.8663 
0.8798 
0.3498 
0.3706 
0.3953 
0.4288 
0.4532 
0.5729 
0.8018 
0.8748 
0.8801 
0.4106 
0.4311 
0.4662 
0.5323 
0.5889 
0.7743 
0.867 
0.8793 
0.8801 
0.5217 
0.5615 
0.6357 
0.7515 
0.8162 
0.8683 
0.8787 
0.8801 
0.8801 
0.7534 
0.798 
0.8437 
0.8699 
0.8763 
0.8795 
0.8801 
0.8797 
0.8789 
0.8731 
0.8768 
0.8791 
0.8799 
0.8801 
0.8801 
0.8801 
0.8789 
0.8769 
SCALARS So_DAY=2920 double 1
LOOKUP_TABLE default
0.2921 
0.2994 
0.3089 
0.3297 
0.3353 
0.3842 
0.4536 
0.619 
0.8424 
0.2994 
0.3042 
0.3176 
0.3348 
0.3534 
0.3991 
0.4752 
0.6619 
0.8573 
0.3088 
0.3176 
0.3371 
0.3588 
0.3766 
0.4196 
0.5115 
0.7288 
0.8703 
0.3296 
0.3346 
0.3587 
0.3888 
0.4018 
0.4541 
0.577 
0.8051 
0.8772 
0.3351 
0.3532 
0.3764 
0.4017 
0.4138 
0.4758 
0.6289 
0.84 
0.8788 
0.3878 
0.4028 
0.4248 
0.4617 
0.4853 
0.594 
0.7893 
0.8714 
0.8799 
0.4644 
0.4881 
0.5284 
0.601 
0.6597 
0.7978 
0.8648 
0.8785 
0.8801 
0.6454 
0.6905 
0.7566 
0.8233 
0.8514 
0.873 
0.8787 
0.8795 
0.8789 
0.8524 
0.8639 
0.8734 
0.8782 
0.8793 
0.88 
0.8801 
0.8789 
0.8769 
SCALARS So_DAY=3285 double 1
LOOKUP_TABLE default
0.2917 
0.299 
0.3076 
0.3235 
0.3246 
0.3672 
0.4223 
0.5408 
0.7862 
0.299 
0.3036 
0.3138 
0.3241 
0.3397 
0.3813 
0.4364 
0.5669 
0.8101 
0.3075 
0.3138 
0.3286 
0.3443 
0.3607 
0.3982 
0.4583 
0.61 
0.8385 
0.3233 
0.324 
0.3442 
0.3718 
0.3854 
0.4192 
0.493 
0.6793 
0.862 
0.3244 
0.3395 
0.3605 
0.3853 
0.3961 
0.4312 
0.5123 
0.7251 
0.8704 
0.3704 
0.3845 
0.4015 
0.4244 
0.4375 
0.4937 
0.6204 
0.8217 
0.8774 
0.4302 
0.4456 
0.4701 
0.5086 
0.532 
0.6344 
0.7892 
0.8656 
0.8792 
0.5617 
0.5913 
0.6403 
0.7136 
0.7589 
0.8321 
0.8671 
0.877 
0.8786 
0.806 
0.8274 
0.851 
0.8682 
0.8738 
0.8781 
0.8794 
0.8786 
0.8769 
SCALARS Sw_DAY=0 double 1
LOOKUP_TABLE default
0.12 
0.12 
0.12 
0.12 
0.12 
0.12 
0.12 
0.12 
0.12 
0.12 
0.12 
0.12 
0.12 
0.12 
0.12 
0.12 
0.12 
0.12 
0.12 
0.12 
0.12 
0.12 
0.12 
0.12 
0.12 
0.12 
0.12 
0.12 
0.12 
0.12 
0.12 
0.12 
0.12 
0.12 
0.12 
0.12 
0.12 
0.12 
0.12 
0.12 
0.12 
0.12 
0.12 
0.12 
0.12 
0.12 
0.12 
0.12 
0.12 
0.12 
0.12 
0.12 
0.12 
0.12 
0.12 
0.12 
0.12 
0.12 
0.12 
0.12 
0.12 
0.12 
0.12 
0.12 
0.12 
0.12 
0.12 
0.12 
0.12 
0.12 
0.12 
0.12 
0.12 
0.12 
0.12 
0.12 
0.12 
0.12 
0.12 
0.12 
0.12 
SCALARS Sw_DAY=365 double 1
LOOKUP_TABLE default
0.121 
0.121 
0.121 
0.121 
0.121 
0.121 
0.121 
0.121 
0.121 
0.121 
0.121 
0.121 
0.121 
0.121 
0.121 
0.121 
0.121 
0.121 
0.121 
0.121 
0.121 
0.121 
0.121 
0.121 
0.121 
0.121 
0.121 
0.121 
0.121 
0.121 
0.121 
0.121 
0.121 
0.121 
0.121 
0.121 
0.121 
0.121 
0.121 
0.121 
0.121 
0.121 
0.121 
0.121 
0.121 
0.121 
0.121 
0.121 
0.121 
0.121 
0.121 
0.121 
0.121 
0.1211 
0.121 
0.121 
0.121 
0.121 
0.121 
0.121 
0.1211 
0.1211 
0.1211 
0.121 
0.121 
0.121 
0.121 
0.121 
0.121 
0.1211 
0.1211 
0.1211 
0.121 
0.121 
0.121 
0.121 
0.121 
0.1211 
0.1211 
0.1211 
0.1211 
SCALARS Sw_DAY=730 double 1
LOOKUP_TABLE default
0.6916 
0.6246 
0.4694 
0.194 
0.1259 
0.1206 
0.1205 
0.1205 
0.1205 
0.6246 
0.523 
0.2748 
0.1307 
0.121 
0.1205 
0.1205 
0.1205 
0.1205 
0.4696 
0.275 
0.1349 
0.1209 
0.1205 
0.1205 
0.1205 
0.1205 
0.1205 
0.1943 
0.1308 
0.1209 
0.1205 
0.1205 
0.1205 
0.1205 
0.1205 
0.1205 
0.126 
0.121 
0.1205 
0.1205 
0.1205 
0.1205 
0.1205 
0.1205 
0.1205 
0.1206 
0.1205 
0.1205 
0.1205 
0.1205 
0.1205 
0.1205 
0.1205 
0.1205 
0.1205 
0.1205 
0.1205 
0.1205 
0.1205 
0.1205 
0.1205 
0.1205 
0.1205 
0.1205 
0.1205 
0.1205 
0.1205 
0.1205 
0.1205 
0.1205 
0.1205 
0.1205 
0.1205 
0.1205 
0.1205 
0.1205 
0.1205 
0.1205 
0.1205 
0.1205 
0.1205 
SCALARS Sw_DAY=1095 double 1
LOOKUP_TABLE default
0.7016 
0.6807 
0.6126 
0.4901 
0.3309 
0.1386 
0.1207 
0.1202 
0.1202 
0.6807 
0.6323 
0.5558 
0.3726 
0.1887 
0.1235 
0.1203 
0.1202 
0.1202 
0.6127 
0.5559 
0.418 
0.1877 
0.1277 
0.1204 
0.1202 
0.1202 
0.1202 
0.4904 
0.373 
0.1878 
0.1252 
0.1206 
0.1202 
0.1202 
0.1202 
0.1202 
0.3318 
0.1891 
0.1277 
0.1206 
0.1202 
0.1202 
0.1202 
0.1202 
0.1202 
0.1376 
0.1233 
0.1204 
0.1202 
0.1202 
0.1202 
0.1202 
0.1202 
0.1202 
0.1206 
0.1203 
0.1202 
0.1202 
0.1202 
0.1202 
0.1202 
0.1202 
0.1202 
0.1202 
0.1202 
0.1202 
0.1202 
0.1202 
0.1202 
0.1202 
0.1202 
0.1202 
0.1202 
0.1202 
0.1202 
0.1202 
0.1202 
0.1202 
0.1202 
0.1202 
0.1202 
SCALARS Sw_DAY=1460 double 1
LOOKUP_TABLE default
0.7065 
0.6967 
0.6556 
0.5883 
0.5432 
0.3135 
0.1374 
0.1204 
0.1199 
0.6967 
0.67 
0.6191 
0.5471 
0.4698 
0.2102 
0.1248 
0.12 
0.1199 
0.6556 
0.6191 
0.5657 
0.4441 
0.2899 
0.1354 
0.1204 
0.1199 
0.1199 
0.5886 
0.5474 
0.4443 
0.236 
0.1426 
0.1211 
0.1199 
0.1199 
0.1199 
0.5438 
0.4704 
0.2904 
0.1426 
0.1227 
0.12 
0.1199 
0.1199 
0.1199 
0.3044 
0.2049 
0.1343 
0.121 
0.12 
0.1199 
0.1199 
0.1199 
0.1199 
0.1353 
0.1241 
0.1204 
0.1199 
0.1199 
0.1199 
0.1199 
0.1199 
0.1199 
0.1203 
0.12 
0.1199 
0.1199 
0.1199 
0.1199 
0.1199 
0.1199 
0.1199 
0.1199 
0.1199 
0.1199 
0.1199 
0.1199 
0.1199 
0.1199 
0.1199 
0.1199 
SCALARS Sw_DAY=1825 double 1
LOOKUP_TABLE default
0.7069 
0.6991 
0.6732 
0.6226 
0.6023 
0.4832 
0.2435 
0.1278 
0.12 
0.6991 
0.6841 
0.6465 
0.6023 
0.5723 
0.4178 
0.1818 
0.1227 
0.1199 
0.6732 
0.6465 
0.6075 
0.5567 
0.5074 
0.2874 
0.1358 
0.1204 
0.1199 
0.6228 
0.6024 
0.5567 
0.4586 
0.3495 
0.1564 
0.1219 
0.1199 
0.1199 
0.6025 
0.5727 
0.5075 
0.3493 
0.202 
0.127 
0.1202 
0.1199 
0.1199 
0.4736 
0.406 
0.276 
0.1531 
0.1263 
0.1203 
0.1199 
0.1199 
0.1199 
0.2291 
0.1732 
0.1334 
0.1216 
0.1202 
0.1199 
0.1199 
0.1199 
0.1199 
0.1262 
0.1221 
0.1203 
0.1199 
0.1199 
0.1199 
0.1199 
0.1199 
0.1199 
0.12 
0.1199 
0.1199 
0.1199 
0.1199 
0.1199 
0.1199 
0.1199 
0.1199 
SCALARS Sw_DAY=2190 double 1
LOOKUP_TABLE default
0.7072 
0.6999 
0.6823 
0.6438 
0.63 
0.5573 
0.3968 
0.1696 
0.1214 
0.6999 
0.6907 
0.6633 
0.6305 
0.607 
0.5254 
0.3312 
0.1445 
0.1205 
0.6823 
0.6634 
0.6311 
0.5992 
0.5768 
0.4628 
0.2303 
0.1273 
0.12 
0.644 
0.6307 
0.5993 
0.5498 
0.5118 
0.3324 
0.1499 
0.1212 
0.1199 
0.6303 
0.6072 
0.5771 
0.5119 
0.4523 
0.2212 
0.1287 
0.1202 
0.1199 
0.5506 
0.5171 
0.4509 
0.3175 
0.2114 
0.1317 
0.1207 
0.1199 
0.1199 
0.377 
0.3099 
0.2141 
0.1445 
0.127 
0.1206 
0.1199 
0.1199 
0.1199 
0.1595 
0.1391 
0.1256 
0.1209 
0.1201 
0.1199 
0.1199 
0.1199 
0.1199 
0.1209 
0.1203 
0.1199 
0.1199 
0.1199 
0.1199 
0.1199 
0.1199 
0.1199 
SCALARS Sw_DAY=2555 double 1
LOOKUP_TABLE default
0.7075 
0.7002 
0.6871 
0.6579 
0.65 
0.5939 
0.4933 
0.2701 
0.1296 
0.7002 
0.6937 
0.6737 
0.6506 
0.6291 
0.5746 
0.4569 
0.2213 
0.1247 
0.6871 
0.6738 
0.6479 
0.6228 
0.6045 
0.5415 
0.3883 
0.1676 
0.1213 
0.658 
0.6508 
0.623 
0.59 
0.571 
0.4793 
0.2715 
0.1337 
0.1202 
0.6502 
0.6294 
0.6047 
0.5712 
0.5468 
0.4271 
0.1982 
0.1252 
0.1199 
0.5894 
0.5689 
0.5338 
0.4677 
0.4111 
0.2257 
0.133 
0.1207 
0.1199 
0.4783 
0.4385 
0.3643 
0.2485 
0.1838 
0.1317 
0.1213 
0.1199 
0.1198 
0.2466 
0.202 
0.1563 
0.1301 
0.1237 
0.1205 
0.1199 
0.1198 
0.1199 
0.1269 
0.1232 
0.1209 
0.1201 
0.1199 
0.1199 
0.1198 
0.1199 
0.1199 
SCALARS Sw_DAY=2920 double 1
LOOKUP_TABLE default
0.7079 
0.7006 
0.6896 
0.6673 
0.6647 
0.6158 
0.5464 
0.381 
0.1576 
0.7006 
0.695 
0.6801 
0.6652 
0.6466 
0.6009 
0.5248 
0.3381 
0.1427 
0.6896 
0.6802 
0.6598 
0.6412 
0.6234 
0.5804 
0.4885 
0.2712 
0.1297 
0.6674 
0.6654 
0.6413 
0.6112 
0.5982 
0.5459 
0.423 
0.1949 
0.1228 
0.6649 
0.6468 
0.6236 
0.5983 
0.5862 
0.5242 
0.3711 
0.16 
0.1212 
0.6122 
0.5972 
0.5752 
0.5383 
0.5147 
0.406 
0.2107 
0.1286 
0.1201 
0.5356 
0.5119 
0.4716 
0.399 
0.3403 
0.2022 
0.1352 
0.1215 
0.1199 
0.3546 
0.3095 
0.2434 
0.1767 
0.1486 
0.127 
0.1213 
0.12 
0.1198 
0.1476 
0.1361 
0.1266 
0.1218 
0.1207 
0.12 
0.1199 
0.1198 
0.1198 
SCALARS Sw_DAY=3285 double 1
LOOKUP_TABLE default
0.7083 
0.701 
0.6909 
0.6736 
0.6754 
0.6328 
0.5777 
0.4592 
0.2138 
0.701 
0.6956 
0.684 
0.6759 
0.6603 
0.6187 
0.5636 
0.4331 
0.1899 
0.6909 
0.684 
0.6683 
0.6557 
0.6393 
0.6018 
0.5417 
0.39 
0.1615 
0.6737 
0.676 
0.6558 
0.6282 
0.6146 
0.5808 
0.507 
0.3207 
0.138 
0.6756 
0.6605 
0.6395 
0.6147 
0.6039 
0.5688 
0.4877 
0.2749 
0.1296 
0.6296 
0.6155 
0.5985 
0.5756 
0.5625 
0.5063 
0.3796 
0.1783 
0.1226 
0.5698 
0.5544 
0.5299 
0.4914 
0.468 
0.3656 
0.2108 
0.1344 
0.1207 
0.4383 
0.4087 
0.3597 
0.2864 
0.2411 
0.1679 
0.1329 
0.1226 
0.1201 
0.194 
0.1726 
0.149 
0.1318 
0.1262 
0.1219 
0.1206 
0.1201 
0.1198 
SCALARS Sg_DAY=0 double 1
LOOKUP_TABLE default
0 
0 
0 
0 
0 
0 
0 
0 
0 
0 
0 
0 
0 
0 
0 
0 
0 
0 
0 
0 
0 
0 
0 
0 
0 
0 
0 
0 
0 
0 
0 
0 
0 
0 
0 
0 
0 
0 
0 
0 
0 
0 
0 
0 
0 
0 
0 
0 
0 
0 
0 
0 
0 
0 
0 
0 
0 
0 
0 
0 
0 
0 
0 
0 
0 
0 
0 
0 
0 
0 
0 
0 
0 
0 
0 
0 
0 
0 
0 
0 
0 
SCALARS Sg_DAY=365 double 1
LOOKUP_TABLE default
0.003895 
0.003969 
0.00411 
0.004302 
0.00447 
0.004641 
0.004855 
0.005023 
0.005116 
0.003964 
0.004046 
0.004202 
0.004419 
0.00461 
0.004806 
0.005056 
0.005256 
0.005368 
0.004095 
0.004193 
0.004382 
0.004648 
0.004887 
0.005138 
0.005468 
0.005739 
0.005894 
0.004272 
0.004394 
0.004633 
0.004976 
0.005299 
0.005637 
0.006104 
0.006506 
0.006747 
0.004425 
0.00457 
0.004857 
0.005283 
0.005693 
0.006132 
0.006768 
0.00735 
0.00772 
0.004579 
0.004749 
0.00509 
0.005604 
0.006114 
0.006669 
0.007514 
0.008331 
0.008887 
0.004776 
0.004981 
0.005402 
0.006053 
0.006732 
0.007496 
0.008768 
0.01017 
0.01131 
0.004931 
0.005169 
0.005661 
0.006443 
0.007301 
0.008301 
0.01016 
0.01259 
0.01542 
0.005019 
0.005275 
0.00581 
0.006677 
0.007664 
0.008851 
0.01129 
0.01542 
0.02342 
SCALARS Sg_DAY=730 double 1
LOOKUP_TABLE default
0 
0 
0.001565 
0.002987 
0 
0 
0 
0 
0 
0 
0.0008261 
0.002246 
0 
0 
0 
0 
0 
0 
0.001558 
0.002241 
0.003104 
0 
0 
0 
0 
0 
0 
0.002975 
0 
0 
0 
0 
0 
0 
0 
0 
0 
0 
0 
0 
0 
0 
0 
0 
0 
0 
0 
0 
0 
0 
0 
0 
0 
0 
0 
0 
0 
0 
0 
0 
0 
0 
2.562e-05 
0 
0 
0 
0 
0 
0 
0 
0.0004262 
0.001292 
0 
0 
0 
0 
0 
0 
3.742e-05 
0.001297 
0.003288 
SCALARS Sg_DAY=1095 double 1
LOOKUP_TABLE default
0 
0 
0.001565 
0.002987 
0 
0 
0 
0 
0 
0 
0.0008261 
0.002246 
0 
0 
0 
0 
0 
0 
0.001558 
0.002241 
0.003104 
0 
0 
0 
0 
0 
0 
0.002975 
0 
0 
0 
0 
0 
0 
0 
0 
0 
0 
0 
0 
0 
0 
0 
0 
0 
0 
0 
0 
0 
0 
0 
0 
0 
0 
0 
0 
0 
0 
0 
0 
0 
0 
2.562e-05 
0 
0 
0 
0 
0 
0 
0 
0.0004262 
0.001292 
0 
0 
0 
0 
0 
0 
3.742e-05 
0.001297 
0.003288 
SCALARS Sg_DAY=1460 double 1
LOOKUP_TABLE default
0 
0 
0.001565 
0.002987 
0 
0 
0 
0 
0 
0 
0.0008261 
0.002246 
0 
0 
0 
0 
0 
0 
0.001558 
0.002241 
0.003104 
0 
0 
0 
0 
0 
0 
0.002975 
0 
0 
0 
0 
0 
0 
0 
0 
0 
0 
0 
0 
0 
0 
0 
0 
0 
0 
0 
0 
0 
0 
0 
0 
0 
0 
0 
0 
0 
0 
0 
0 
0 
0 
2.562e-05 
0 
0 
0 
0 
0 
0 
0 
0.0004262 
0.001292 
0 
0 
0 
0 
0 
0 
3.742e-05 
0.001297 
0.003288 
SCALARS Sg_DAY=1825 double 1
LOOKUP_TABLE default
0 
0 
0.001565 
0.002987 
0 
0 
0 
0 
0 
0 
0.0008261 
0.002246 
0 
0 
0 
0 
0 
0 
0.001558 
0.002241 
0.003104 
0 
0 
0 
0 
0 
0 
0.002975 
0 
0 
0 
0 
0 
0 
0 
0 
0 
0 
0 
0 
0 
0 
0 
0 
0 
0 
0 
0 
0 
0 
0 
0 
0 
0 
0 
0 
0 
0 
0 
0 
0 
0 
2.562e-05 
0 
0 
0 
0 
0 
0 
0 
0.0004262 
0.001292 
0 
0 
0 
0 
0 
0 
3.742e-05 
0.001297 
0.003288 
SCALARS Sg_DAY=2190 double 1
LOOKUP_TABLE default
0 
0 
0.001565 
0.002987 
0 
0 
0 
0 
0 
0 
0.0008261 
0.002246 
0 
0 
0 
0 
0 
0 
0.001558 
0.002241 
0.003104 
0 
0 
0 
0 
0 
0 
0.002975 
0 
0 
0 
0 
0 
0 
0 
0 
0 
0 
0 
0 
0 
0 
0 
0 
0 
0 
0 
0 
0 
0 
0 
0 
0 
0 
0 
0 
0 
0 
0 
0 
0 
0 
2.562e-05 
0 
0 
0 
0 
0 
0 
0 
0.0004262 
0.001292 
0 
0 
0 
0 
0 
0 
3.742e-05 
0.001297 
0.003288 
SCALARS Sg_DAY=2555 double 1
LOOKUP_TABLE default
0 
0 
0.001565 
0.002987 
0 
0 
0 
0 
0 
0 
0.0008261 
0.002246 
0 
0 
0 
0 
0 
0 
0.001558 
0.002241 
0.003104 
0 
0 
0 
0 
0 
0 
0.002975 
0 
0 
0 
0 
0 
0 
0 
0 
0 
0 
0 
0 
0 
0 
0 
0 
0 
0 
0 
0 
0 
0 
0 
0 
0 
0 
0 
0 
0 
0 
0 
0 
0 
0 
2.562e-05 
0 
0 
0 
0 
0 
0 
0 
0.0004262 
0.001292 
0 
0 
0 
0 
0 
0 
3.742e-05 
0.001297 
0.003288 
SCALARS Sg_DAY=2920 double 1
LOOKUP_TABLE default
0 
0 
0.001565 
0.002987 
0 
0 
0 
0 
0 
0 
0.0008261 
0.002246 
0 
0 
0 
0 
0 
0 
0.001558 
0.002241 
0.003104 
0 
0 
0 
0 
0 