# vtk DataFile Version 3.0
MOAB 5.4.1
ASCII
DATASET UNSTRUCTURED_GRID
POINTS 200 double
0 0 0
160 0 0
320 0 0
480 0 0
640 0 0
720 0 0
880 0 0
1040 0 0
1200 0 0
1360 0 0
0 160 0
160 160 0
320 160 0
480 160 0
640 160 0
720 160 0
880 160 0
1040 160 0
1200 160 0
1360 160 0
0 320 0
160 320 0
320 320 0
480 320 0
640 320 0
720 320 0
880 320 0
1040 320 0
1200 320 0
1360 320 0
0 480 0
160 480 0
320 480 0
480 480 0
640 480 0
720 480 0
880 480 0
1040 480 0
1200 480 0
1360 480 0
0 640 0
160 640 0
320 640 0
480 640 0
640 640 0
720 640 0
880 640 0
1040 640 0
1200 640 0
1360 640 0
0 720 0
160 720 0
320 720 0
480 720 0
640 720 0
720 720 0
880 720 0
1040 720 0
1200 720 0
1360 720 0
0 880 0
160 880 0
320 880 0
480 880 0
640 880 0
720 880 0
880 880 0
1040 880 0
1200 880 0
1360 880 0
0 1040 0
160 1040 0
320 1040 0
480 1040 0
640 1040 0
720 1040 0
880 1040 0
1040 1040 0
1200 1040 0
1360 1040 0
0 1200 0
160 1200 0
320 1200 0
480 1200 0
640 1200 0
720 1200 0
880 1200 0
1040 1200 0
1200 1200 0
1360 1200 0
0 1360 0
160 1360 0
320 1360 0
480 1360 0
640 1360 0
720 1360 0
880 1360 0
1040 1360 0
1200 1360 0
1360 1360 0
0 0 -30
160 0 -30
320 0 -30
480 0 -30
640 0 -30
720 0 -30
880 0 -30
1040 0 -30
1200 0 -30
1360 0 -30
0 160 -30
160 160 -30
320 160 -30
480 160 -30
640 160 -30
720 160 -30
880 160 -30
1040 160 -30
1200 160 -30
1360 160 -30
0 320 -30
160 320 -30
320 320 -30
480 320 -30
640 320 -30
720 320 -30
880 320 -30
1040 320 -30
1200 320 -30
1360 320 -30
0 480 -30
160 480 -30
320 480 -30
480 480 -30
640 480 -30
720 480 -30
880 480 -30
1040 480 -30
1200 480 -30
1360 480 -30
0 640 -30
160 640 -30
320 640 -30
480 640 -30
640 640 -30
720 640 -30
880 640 -30
1040 640 -30
1200 640 -30
1360 640 -30
0 720 -30
160 720 -30
320 720 -30
480 720 -30
640 720 -30
720 720 -30
880 720 -30
1040 720 -30
1200 720 -30
1360 720 -30
0 880 -30
160 880 -30
320 880 -30
480 880 -30
640 880 -30
720 880 -30
880 880 -30
1040 880 -30
1200 880 -30
1360 880 -30
0 1040 -30
160 1040 -30
320 1040 -30
480 1040 -30
640 1040 -30
720 1040 -30
880 1040 -30
1040 1040 -30
1200 1040 -30
1360 1040 -30
0 1200 -30
160 1200 -30
320 1200 -30
480 1200 -30
640 1200 -30
720 1200 -30
880 1200 -30
1040 1200 -30
1200 1200 -30
1360 1200 -30
0 1360 -30
160 1360 -30
320 1360 -30
480 1360 -30
640 1360 -30
720 1360 -30
880 1360 -30
1040 1360 -30
1200 1360 -30
1360 1360 -30
CELLS 81 729
8 0 1 11 10 100 101 111 110
8 10 11 21 20 110 111 121 120
8 20 21 31 30 120 121 131 130
8 30 31 41 40 130 131 141 140
8 40 41 51 50 140 141 151 150
8 50 51 61 60 150 151 161 160
8 60 61 71 70 160 161 171 170
8 70 71 81 80 170 171 181 180
8 80 81 91 90 180 181 191 190
8 1 2 12 11 101 102 112 111
8 11 12 22 21 111 112 122 121
8 21 22 32 31 121 122 132 131
8 31 32 42 41 131 132 142 141
8 41 42 52 51 141 142 152 151
8 51 52 62 61 151 152 162 161
8 61 62 72 71 161 162 172 171
8 71 72 82 81 171 172 182 181
8 81 82 92 91 181 182 192 191
8 2 3 13 12 102 103 113 112
8 12 13 23 22 112 113 123 122
8 22 23 33 32 122 123 133 132
8 32 33 43 42 132 133 143 142
8 42 43 53 52 142 143 153 152
8 52 53 63 62 152 153 163 162
8 62 63 73 72 162 163 173 172
8 72 73 83 82 172 173 183 182
8 82 83 93 92 182 183 193 192
8 3 4 14 13 103 104 114 113
8 13 14 24 23 113 114 124 123
8 23 24 34 33 123 124 134 133
8 33 34 44 43 133 134 144 143
8 43 44 54 53 143 144 154 153
8 53 54 64 63 153 154 164 163
8 63 64 74 73 163 164 174 173
8 73 74 84 83 173 174 184 183
8 83 84 94 93 183 184 194 193
8 4 5 15 14 104 105 115 114
8 14 15 25 24 114 115 125 124
8 24 25 35 34 124 125 135 134
8 34 35 45 44 134 135 145 144
8 44 45 55 54 144 145 155 154
8 54 55 65 64 154 155 165 164
8 64 65 75 74 164 165 175 174
8 74 75 85 84 174 175 185 184
8 84 85 95 94 184 185 195 194
8 5 6 16 15 105 106 116 115
8 15 16 26 25 115 116 126 125
8 25 26 36 35 125 126 136 135
8 35 36 46 45 135 136 146 145
8 45 46 56 55 145 146 156 155
8 55 56 66 65 155 156 166 165
8 65 66 76 75 165 166 176 175
8 75 76 86 85 175 176 186 185
8 85 86 96 95 185 186 196 195
8 6 7 17 16 106 107 117 116
8 16 17 27 26 116 117 127 126
8 26 27 37 36 126 127 137 136
8 36 37 47 46 136 137 147 146
8 46 47 57 56 146 147 157 156
8 56 57 67 66 156 157 167 166
8 66 67 77 76 166 167 177 176
8 76 77 87 86 176 177 187 186
8 86 87 97 96 186 187 197 196
8 7 8 18 17 107 108 118 117
8 17 18 28 27 117 118 128 127
8 27 28 38 37 127 128 138 137
8 37 38 48 47 137 138 148 147
8 47 48 58 57 147 148 158 157
8 57 58 68 67 157 158 168 167
8 67 68 78 77 167 168 178 177
8 77 78 88 87 177 178 188 187
8 87 88 98 97 187 188 198 197
8 8 9 19 18 108 109 119 118
8 18 19 29 28 118 119 129 128
8 28 29 39 38 128 129 139 138
8 38 39 49 48 138 139 149 148
8 48 49 59 58 148 149 159 158
8 58 59 69 68 158 159 169 168
8 68 69 79 78 168 169 179 178
8 78 79 89 88 178 179 189 188
8 88 89 99 98 188 189 199 198
CELL_TYPES 81
12
12
12
12
12
12
12
12
12
12
12
12
12
12
12
12
12
12
12
12
12
12
12
12
12
12
12
12
12
12
12
12
12
12
12
12
12
12
12
12
12
12
12
12
12
12
12
12
12
12
12
12
12
12
12
12
12
12
12
12
12
12
12
12
12
12
12
12
12
12
12
12
12
12
12
12
12
12
12
12
12
POINT_DATA 200
SCALARS GLOBAL_ID int 1
LOOKUP_TABLE default
-1 
-1 
-1 
-1 
-1 
-1 
-1 
-1 
-1 
-1 
-1 
-1 
-1 
-1 
-1 
-1 
-1 
-1 
-1 
-1 
-1 
-1 
-1 
-1 
-1 
-1 
-1 
-1 
-1 
-1 
-1 
-1 
-1 
-1 
-1 
-1 
-1 
-1 
-1 
-1 
-1 
-1 
-1 
-1 
-1 
-1 
-1 
-1 
-1 
-1 
-1 
-1 
-1 
-1 
-1 
-1 
-1 
-1 
-1 
-1 
-1 
-1 
-1 
-1 
-1 
-1 
-1 
-1 
-1 
-1 
-1 
-1 
-1 
-1 
-1 
-1 
-1 
-1 
-1 
-1 
-1 
-1 
-1 
-1 
-1 
-1 
-1 
-1 
-1 
-1 
-1 
-1 
-1 
-1 
-1 
-1 
-1 
-1 
-1 
-1 
-1 
-1 
-1 
-1 
-1 
-1 
-1 
-1 
-1 
-1 
-1 
-1 
-1 
-1 
-1 
-1 
-1 
-1 
-1 
-1 
-1 
-1 
-1 
-1 
-1 
-1 
-1 
-1 
-1 
-1 
-1 
-1 
-1 
-1 
-1 
-1 
-1 
-1 
-1 
-1 
-1 
-1 
-1 
-1 
-1 
-1 
-1 
-1 
-1 
-1 
-1 
-1 
-1 
-1 
-1 
-1 
-1 
-1 
-1 
-1 
-1 
-1 
-1 
-1 
-1 
-1 
-1 
-1 
-1 
-1 
-1 
-1 
-1 
-1 
-1 
-1 
-1 
-1 
-1 
-1 
-1 
-1 
-1 
-1 
-1 
-1 
-1 
-1 
-1 
-1 
-1 
-1 
-1 
-1 
-1 
-1 
-1 
-1 
-1 
-1 
CELL_DATA 81
SCALARS GLOBAL_ID int 1
LOOKUP_TABLE default
-1 
-1 
-1 
-1 
-1 
-1 
-1 
-1 
-1 
-1 
-1 
-1 
-1 
-1 
-1 
-1 
-1 
-1 
-1 
-1 
-1 
-1 
-1 
-1 
-1 
-1 
-1 
-1 
-1 
-1 
-1 
-1 
-1 
-1 
-1 
-1 
-1 
-1 
-1 
-1 
-1 
-1 
-1 
-1 
-1 
-1 
-1 
-1 
-1 
-1 
-1 
-1 
-1 
-1 
-1 
-1 
-1 
-1 
-1 
-1 
-1 
-1 
-1 
-1 
-1 
-1 
-1 
-1 
-1 
-1 
-1 
-1 
-1 
-1 
-1 
-1 
-1 
-1 
-1 
-1 
-1 
SCALARS id int 1
LOOKUP_TABLE default
0 
1 
2 
3 
4 
5 
6 
7 
8 
9 
10 
11 
12 
13 
14 
15 
16 
17 
18 
19 
20 
21 
22 
23 
24 
25 
26 
27 
28 
29 
30 
31 
32 
33 
34 
35 
36 
37 
38 
39 
40 
41 
42 
43 
44 
45 
46 
47 
48 
49 
50 
51 
52 
53 
54 
55 
56 
57 
58 
59 
60 
61 
62 
63 
64 
65 
66 
67 
68 
69 
70 
71 
72 
73 
74 
75 
76 
77 
78 
79 
80 
SCALARS permeability double 1
LOOKUP_TABLE default
100 
100 
100 
100 
100 
100 
100 
100 
100 
100 
100 
100 
100 
100 
100 
100 
100 
100 
100 
100 
100 
100 
100 
100 
100 
100 
100 
100 
100 
100 
100 
100 
100 
100 
100 
100 
100 
100 
100 
100 
100 
100 
100 
100 
100 
100 
100 
100 
100 
100 
100 
100 
100 
100 
100 
100 
100 
100 
100 
100 
100 
100 
100 
100 
100 
100 
100 
100 
100 
100 
100 
100 
100 
100 
100 
100 
100 
100 
100 
100 
100 
SCALARS porosity double 1
LOOKUP_TABLE default
0.28 
0.28 
0.28 
0.28 
0.28 
0.28 
0.28 
0.28 
0.28 
0.28 
0.28 
0.28 
0.28 
0.28 
0.28 
0.28 
0.28 
0.28 
0.28 
0.28 
0.28 
0.28 
0.28 
0.28 
0.28 
0.28 
0.28 
0.28 
0.28 
0.28 
0.28 
0.28 
0.28 
0.28 
0.28 
0.28 
0.28 
0.28 
0.28 
0.28 
0.28 
0.28 
0.28 
0.28 
0.28 
0.3 
0.3 
0.3 
0.3 
0.3 
0.3 
0.3 
0.3 
0.3 
0.3 
0.3 
0.3 
0.3 
0.3 
0.3 
0.3 
0.3 
0.3 
0.3 
0.3 
0.3 
0.3 
0.3 
0.3 
0.3 
0.3 
0.3 
0.3 
0.3 
0.3 
0.3 
0.3 
0.3 
0.3 
0.3 
0.3 
SCALARS P_DAY=0 double 1
LOOKUP_TABLE default
5382 
5382 
5382 
5382 
5382 
5382 
5382 
5382 
5382 
5382 
5382 
5382 
5382 
5382 
5382 
5382 
5382 
5382 
5382 
5382 
5382 
5382 
5382 
5382 
5382 
5382 
5382 
5382 
5382 
5382 
5382 
5382 
5382 
5382 
5382 
5382 
5382 
5382 
5382 
5382 
5382 
5382 
5382 
5382 
5382 
5382 
5382 
5382 
5382 
5382 
5382 
5382 
5382 
5382 
5382 
5382 
5382 
5382 
5382 
5382 
5382 
5382 
5382 
5382 
5382 
5382 
5382 
5382 
5382 
5382 
5382 
5382 
5382 
5382 
5382 
5382 
5382 
5382 
5382 
5382 
5382 
SCALARS P_DAY=365 double 1
LOOKUP_TABLE default
2479 
2479 
2478 
2476 
2474 
2473 
2471 
2469 
2469 
2479 
2478 
2477 
2475 
2473 
2471 
2469 
2467 
2466 
2478 
2477 
2475 
2473 
2471 
2468 
2466 
2463 
2462 
2476 
2475 
2473 
2470 
2467 
2464 
2460 
2457 
2454 
2475 
2473 
2471 
2467 
2464 
2460 
2454 
2449 
2446 
2473 
2472 
2469 
2464 
2460 
2455 
2448 
2441 
2436 
2472 
2470 
2466 
2461 
2455 
2448 
2437 
2425 
2416 
2470 
2468 
2464 
2457 
2450 
2441 
2425 
2405 
2384 
2470 
2467 
2463 
2455 
2447 
2436 
2416 
2384 
2325 
SCALARS P_DAY=730 double 1
LOOKUP_TABLE default
4255 
4170 
4108 
4062 
4051 
4044 
4037 
4032 
4030 
4170 
4129 
4082 
4057 
4048 
4042 
4035 
4031 
4029 
4108 
4082 
4062 
4050 
4044 
4038 
4032 
4028 
4026 
4062 
4057 
4050 
4043 
4038 
4033 
4028 
4024 
4022 
4051 
4048 
4043 
4038 
4033 
4029 
4024 
4021 
4019 
4043 
4041 
4038 
4033 
4029 
4025 
4020 
4017 
4014 
4036 
4035 
4032 
4028 
4024 
4020 
4015 
4011 
4007 
4032 
4030 
4028 
4024 
4020 
4016 
4011 
4004 
3998 
4030 
4028 
4026 
4022 
4018 
4014 
4007 
3998 
3983 
SCALARS P_DAY=1095 double 1
LOOKUP_TABLE default
5087 
5004 
4951 
4906 
4879 
4862 
4854 
4849 
4846 
5004 
4970 
4930 
4891 
4870 
4859 
4852 
4847 
4844 
4951 
4930 
4901 
4871 
4861 
4854 
4847 
4842 
4840 
4906 
4891 
4871 
4860 
4854 
4848 
4841 
4836 
4834 
4879 
4869 
4861 
4854 
4848 
4843 
4836 
4831 
4828 
4862 
4859 
4854 
4848 
4842 
4837 
4830 
4824 
4820 
4853 
4851 
4847 
4841 
4836 
4830 
4822 
4814 
4808 
4848 
4846 
4842 
4836 
4830 
4824 
4813 
4801 
4789 
4846 
4844 
4840 
4834 
4827 
4820 
4808 
4789 
4759 
SCALARS P_DAY=1460 double 1
LOOKUP_TABLE default
5934 
5855 
5804 
5765 
5738 
5715 
5698 
5692 
5689 
5855 
5822 
5787 
5752 
5729 
5707 
5695 
5690 
5687 
5804 
5787 
5761 
5732 
5712 
5699 
5691 
5686 
5683 
5764 
5752 
5732 
5708 
5698 
5691 
5684 
5679 
5676 
5738 
5729 
5712 
5698 
5691 
5685 
5678 
5673 
5670 
5714 
5707 
5698 
5691 
5685 
5680 
5672 
5666 
5662 
5697 
5695 
5690 
5684 
5678 
5672 
5663 
5655 
5649 
5692 
5690 
5685 
5679 
5673 
5666 
5655 
5642 
5629 
5689 
5687 
5683 
5676 
5670 
5662 
5649 
5629 
5598 
SCALARS P_DAY=1825 double 1
LOOKUP_TABLE default
5999 
5920 
5870 
5832 
5807 
5784 
5758 
5748 
5745 
5920 
5887 
5853 
5820 
5797 
5776 
5753 
5745 
5742 
5869 
5853 
5828 
5801 
5781 
5760 
5745 
5739 
5736 
5831 
5820 
5801 
5778 
5760 
5745 
5736 
5730 
5727 
5807 
5797 
5780 
5760 
5746 
5737 
5728 
5722 
5718 
5784 
5776 
5760 
5745 
5737 
5730 
5720 
5712 
5707 
5758 
5752 
5745 
5736 
5728 
5720 
5709 
5697 
5688 
5748 
5745 
5739 
5730 
5722 
5712 
5697 
5678 
5660 
5745 
5742 
5736 
5727 
5718 
5707 
5688 
5660 
5613 
SCALARS P_DAY=2190 double 1
LOOKUP_TABLE default
6056 
5978 
5927 
5890 
5867 
5846 
5822 
5804 
5800 
5978 
5944 
5911 
5879 
5858 
5838 
5814 
5800 
5796 
5927 
5910 
5887 
5862 
5843 
5824 
5802 
5793 
5790 
5890 
5879 
5862 
5840 
5823 
5806 
5789 
5783 
5780 
5867 
5858 
5843 
5823 
5807 
5792 
5781 
5774 
5771 
5846 
5838 
5824 
5805 
5791 
5782 
5772 
5765 
5760 
5821 
5813 
5801 
5789 
5781 
5773 
5761 
5749 
5740 
5804 
5800 
5793 
5783 
5774 
5765 
5749 
5731 
5712 
5800 
5796 
5790 
5780 
5771 
5760 
5740 
5712 
5665 
SCALARS P_DAY=2555 double 1
LOOKUP_TABLE default
6115 
6037 
5986 
5950 
5928 
5908 
5885 
5866 
5858 
6037 
6004 
5970 
5940 
5920 
5901 
5879 
5860 
5854 
5986 
5970 
5947 
5923 
5905 
5888 
5866 
5850 
5846 
5950 
5939 
5923 
5903 
5887 
5870 
5849 
5839 
5836 
5927 
5920 
5905 
5886 
5871 
5855 
5836 
5829 
5825 
5908 
5901 
5887 
5870 
5855 
5838 
5826 
5819 
5814 
5884 
5878 
5865 
5848 
5836 
5826 
5814 
5803 
5794 
5865 
5859 
5850 
5839 
5829 
5819 
5803 
5784 
5766 
5858 
5854 
5846 
5836 
5825 
5814 
5794 
5766 
5718 
SCALARS P_DAY=2920 double 1
LOOKUP_TABLE default
6084 
6005 
5955 
5919 
5897 
5879 
5857 
5839 
5828 
6005 
5972 
5939 
5909 
5890 
5872 
5850 
5832 
5822 
5955 
5939 
5916 
5893 
5876 
5859 
5838 
5820 
5813 
5919 
5909 
5893 
5874 
5858 
5842 
5821 
5804 
5800 
5897 
5890 
5876 
5858 
5842 
5827 
5806 
5791 
5788 
5879 
5872 
5859 
5842 
5827 
5811 
5789 
5779 
5775 
5856 
5850 
5838 
5821 
5805 
5789 
5774 
5763 
5754 
5837 
5831 
5819 
5804 
5792 
5780 
5763 
5744 
5725 
5827 
5822 
5813 
5800 
5788 
5775 
5754 
5725 
5676 
SCALARS P_DAY=3285 double 1
LOOKUP_TABLE default
6050 
5971 
5921 
5885 
5864 
5846 
5826 
5809 
5797 
5971 
5938 
5905 
5875 
5857 
5840 
5820 
5803 
5791 
5921 
5904 
5882 
5859 
5843 
5827 
5807 
5790 
5779 
5885 
5875 
5859 
5841 
5826 
5810 
5790 
5772 
5763 
5864 
5856 
5843 
5825 
5810 
5795 
5775 
5756 
5749 
5846 
5839 
5827 
5810 
5795 
5779 
5758 
5739 
5735 
5825 
5819 
5806 
5789 
5774 
5757 
5734 
5719 
5712 
5808 
5801 
5788 
5770 
5755 
5739 
5720 
5700 
5682 
5796 
5789 
5778 
5763 
5749 
5735 
5712 
5682 
5633 
SCALARS P_DAY=3650 double 1
LOOKUP_TABLE default
6015 
5936 
5885 
5850 
5829 
5812 
5793 
5778 
5768 
5936 
5903 
5869 
5840 
5822 
5805 
5787 
5771 
5760 
5885 
5869 
5847 
5824 
5808 
5793 
5774 
5758 
5746 
5849 
5839 
5824 
5806 
5791 
5776 
5757 
5740 
5727 
5829 
5821 
5808 
5791 
5776 
5761 
5741 
5722 
5709 
5811 
5805 
5793 
5776 
5761 
5745 
5723 
5702 
5691 
5792 
5786 
5773 
5756 
5740 
5723 
5698 
5673 
5664 
5776 
5769 
5757 
5738 
5721 
5701 
5673 
5650 
5632 
5765 
5758 
5744 
5725 
5709 
5691 
5664 
5632 
5583 
SCALARS P_DAY=4015 double 1
LOOKUP_TABLE default
5978 
5899 
5849 
5813 
5793 
5776 
5759 
5745 
5737 
5899 
5866 
5832 
5803 
5786 
5770 
5752 
5738 
5729 
5849 
5832 
5810 
5787 
5772 
5757 
5739 
5725 
5715 
5813 
5803 
5787 
5769 
5755 
5740 
5721 
5705 
5693 
5793 
5785 
5772 
5754 
5740 
5725 
5704 
5686 
5671 
5776 
5769 
5757 
5740 
5724 
5708 
5686 
5665 
5647 
5758 
5751 
5738 
5720 
5704 
5686 
5659 
5631 
5611 
5743 
5736 
5723 
5703 
5685 
5664 
5631 
5595 
5570 
5734 
5726 
5711 
5690 
5670 
5647 
5611 
5571 
5517 
SCALARS P_DAY=4380 double 1
LOOKUP_TABLE default
5941 
5862 
5811 
5776 
5756 
5739 
5723 
5710 
5703 
5862 
5828 
5795 
5765 
5748 
5733 
5716 
5703 
5696 
5811 
5794 
5772 
5750 
5734 
5720 
5703 
5690 
5682 
5775 
5765 
5749 
5731 
5717 
5703 
5685 
5669 
5660 
5755 
5748 
5734 
5717 
5702 
5687 
5667 
5649 
5637 
5739 
5732 
5720 
5702 
5687 
5670 
5647 
5626 
5611 
5722 
5715 
5703 
5684 
5666 
5647 
5618 
5588 
5563 
5709 
5702 
5688 
5668 
5648 
5625 
5587 
5543 
5499 
5701 
5694 
5680 
5658 
5635 
5609 
5562 
5498 
5408 
SCALARS P_DAY=4745 double 1
LOOKUP_TABLE default
5899 
5819 
5769 
5733 
5714 
5698 
5681 
5670 
5663 
5819 
5786 
5752 
5723 
5706 
5691 
5675 
5663 
5656 
5769 
5752 
5730 
5707 
5692 
5678 
5662 
5649 
5642 
5733 
5723 
5707 
5689 
5675 
5661 
5643 
5629 
5620 
5714 
5706 
5692 
5675 
5660 
5645 
5625 
5608 
5597 
5698 
5691 
5678 
5661 
5645 
5629 
5605 
5584 
5570 
5681 
5675 
5662 
5643 
5625 
5605 
5575 
5543 
5519 
5670 
5663 
5649 
5628 
5608 
5584 
5543 
5494 
5443 
5663 
5656 
5641 
5620 
5597 
5570 
5520 
5443 
5314 
SCALARS P_DAY=5110 double 1
LOOKUP_TABLE default
5850 
5771 
5720 
5685 
5665 
5649 
5633 
5622 
5616 
5771 
5737 
5704 
5674 
5657 
5642 
5627 
5615 
5609 
5720 
5704 
5681 
5659 
5644 
5630 
5614 
5602 
5595 
5685 
5674 
5659 
5641 
5627 
5613 
5596 
5582 
5574 
5665 
5657 
5644 
5627 
5612 
5597 
5578 
5561 
5551 
5649 
5642 
5630 
5613 
5597 
5581 
5558 
5537 
5524 
5633 
5627 
5614 
5596 
5578 
5558 
5528 
5497 
5474 
5622 
5615 
5602 
5582 
5561 
5537 
5497 
5448 
5398 
5616 
5609 
5595 
5573 
5551 
5524 
5474 
5398 
5269 
SCALARS P_DAY=5475 double 1
LOOKUP_TABLE default
5799 
5719 
5668 
5633 
5613 
5597 
5582 
5571 
5565 
5719 
5686 
5652 
5622 
5605 
5591 
5575 
5564 
5558 
5668 
5652 
5630 
5607 
5592 
5578 
5563 
5551 
5544 
5633 
5623 
5607 
5589 
5575 
5561 
5545 
5531 
5523 
5613 
5606 
5592 
5575 
5561 
5546 
5527 
5511 
5501 
5597 
5591 
5578 
5562 
5546 
5530 
5508 
5488 
5474 
5582 
5575 
5563 
5545 
5527 
5508 
5478 
5448 
5425 
5571 
5564 
5551 
5531 
5511 
5488 
5448 
5399 
5350 
5565 
5558 
5544 
5523 
5501 
5475 
5425 
5350 
5224 
SCALARS P_DAY=5840 double 1
LOOKUP_TABLE default
5745 
5665 
5614 
5579 
5559 
5543 
5528 
5517 
5512 
5665 
5632 
5598 
5568 
5552 
5537 
5522 
5511 
5505 
5614 
5598 
5576 
5553 
5538 
5524 
5509 
5498 
5491 
5579 
5569 
5553 
5535 
5521 
5508 
5491 
5478 
5471 
5559 
5552 
5538 
5521 
5507 
5493 
5474 
5458 
5449 
5544 
5537 
5525 
5508 
5493 
5477 
5455 
5435 
5422 
5528 
5522 
5510 
5492 
5474 
5456 
5426 
5396 
5373 
5518 
5511 
5498 
5479 
5459 
5436 
5396 
5348 
5300 
5512 
5505 
5492 
5471 
5449 
5423 
5373 
5300 
5177 
SCALARS P_DAY=6205 double 1
LOOKUP_TABLE default
5689 
5609 
5559 
5523 
5503 
5488 
5472 
5462 
5456 
5609 
5576 
5542 
5513 
5496 
5481 
5466 
5456 
5450 
5559 
5542 
5520 
5497 
5483 
5469 
5454 
5443 
5437 
5523 
5513 
5497 
5479 
5466 
5452 
5436 
5424 
5416 
5504 
5496 
5483 
5466 
5452 
5438 
5420 
5404 
5394 
5488 
5481 
5469 
5453 
5438 
5423 
5401 
5382 
5369 
5473 
5467 
5454 
5437 
5420 
5401 
5373 
5343 
5321 
5462 
5456 
5443 
5424 
5404 
5382 
5343 
5297 
5249 
5457 
5450 
5437 
5416 
5395 
5369 
5321 
5249 
5128 
SCALARS So_DAY=0 double 1
LOOKUP_TABLE default
0.88 
0.88 
0.88 
0.88 
0.88 
0.88 
0.88 
0.88 
0.88 
0.88 
0.88 
0.88 
0.88 
0.88 
0.88 
0.88 
0.88 
0.88 
0.88 
0.88 
0.88 
0.88 
0.88 
0.88 
0.88 
0.88 
0.88 
0.88 
0.88 
0.88 
0.88 
0.88 
0.88 
0.88 
0.88 
0.88 
0.88 
0.88 
0.88 
0.88 
0.88 
0.88 
0.88 
0.88 
0.88 
0.88 
0.88 
0.88 
0.88 
0.88 
0.88 
0.88 
0.88 
0.88 
0.88 
0.88 
0.88 
0.88 
0.88 
0.88 
0.88 
0.88 
0.88 
0.88 
0.88 
0.88 
0.88 
0.88 
0.88 
0.88 
0.88 
0.88 
0.88 
0.88 
0.88 
0.88 
0.88 
0.88 
0.88 
0.88 
0.88 
SCALARS So_DAY=365 double 1
LOOKUP_TABLE default
0.8751 
0.875 
0.8749 
0.8747 
0.8745 
0.8743 
0.8741 
0.8739 
0.8738 
0.875 
0.8749 
0.8748 
0.8745 
0.8744 
0.8742 
0.8739 
0.8737 
0.8736 
0.8749 
0.8748 
0.8746 
0.8743 
0.8741 
0.8738 
0.8735 
0.8732 
0.8731 
0.8747 
0.8746 
0.8743 
0.874 
0.8737 
0.8733 
0.8729 
0.8724 
0.8722 
0.8745 
0.8744 
0.8741 
0.8737 
0.8733 
0.8728 
0.8722 
0.8716 
0.8712 
0.8744 
0.8742 
0.8739 
0.8734 
0.8728 
0.8723 
0.8714 
0.8706 
0.8701 
0.8742 
0.874 
0.8736 
0.8729 
0.8722 
0.8715 
0.8702 
0.8688 
0.8676 
0.874 
0.8738 
0.8733 
0.8725 
0.8717 
0.8706 
0.8688 
0.8663 
0.8635 
0.8739 
0.8737 
0.8731 
0.8723 
0.8713 
0.8701 
0.8677 
0.8635 
0.8555 
SCALARS So_DAY=730 double 1
LOOKUP_TABLE default
0.3084 
0.3754 
0.529 
0.803 
0.8741 
0.8794 
0.8795 
0.8795 
0.8795 
0.3754 
0.4761 
0.7229 
0.8693 
0.879 
0.8795 
0.8795 
0.8795 
0.8795 
0.5288 
0.7228 
0.862 
0.8791 
0.8795 
0.8795 
0.8795 
0.8795 
0.8795 
0.8027 
0.8692 
0.8791 
0.8795 
0.8795 
0.8795 
0.8795 
0.8795 
0.8795 
0.874 
0.879 
0.8795 
0.8795 
0.8795 
0.8795 
0.8795 
0.8795 
0.8795 
0.8794 
0.8795 
0.8795 
0.8795 
0.8795 
0.8795 
0.8795 
0.8795 
0.8795 
0.8795 
0.8795 
0.8795 
0.8795 
0.8795 
0.8795 
0.8795 
0.8795 
0.8795 
0.8795 
0.8795 
0.8795 
0.8795 
0.8795 
0.8795 
0.8795 
0.8791 
0.8782 
0.8795 
0.8795 
0.8795 
0.8795 
0.8795 
0.8795 
0.8795 
0.8782 
0.8762 
SCALARS So_DAY=1095 double 1
LOOKUP_TABLE default
0.2984 
0.3193 
0.3858 
0.5069 
0.6691 
0.8614 
0.8793 
0.8798 
0.8798 
0.3193 
0.3668 
0.4419 
0.6274 
0.8113 
0.8765 
0.8797 
0.8798 
0.8798 
0.3858 
0.4418 
0.5789 
0.8123 
0.8723 
0.8796 
0.8798 
0.8798 
0.8798 
0.5066 
0.627 
0.8122 
0.8748 
0.8794 
0.8798 
0.8798 
0.8798 
0.8798 
0.6682 
0.8109 
0.8723 
0.8794 
0.8798 
0.8798 
0.8798 
0.8798 
0.8798 
0.8624 
0.8767 
0.8796 
0.8798 
0.8798 
0.8798 
0.8798 
0.8798 
0.8798 
0.8794 
0.8797 
0.8798 
0.8798 
0.8798 
0.8798 
0.8798 
0.8798 
0.8798 
0.8798 
0.8798 
0.8798 
0.8798 
0.8798 
0.8798 
0.8798 
0.8794 
0.8785 
0.8798 
0.8798 
0.8798 
0.8798 
0.8798 
0.8798 
0.8798 
0.8785 
0.8765 
SCALARS So_DAY=1460 double 1
LOOKUP_TABLE default
0.2935 
0.3033 
0.3429 
0.4087 
0.4568 
0.6865 
0.8626 
0.8796 
0.8801 
0.3033 
0.3292 
0.3787 
0.4529 
0.5302 
0.7898 
0.8752 
0.88 
0.8801 
0.3428 
0.3786 
0.4312 
0.5559 
0.7101 
0.8646 
0.8796 
0.8801 
0.8801 
0.4085 
0.4526 
0.5557 
0.764 
0.8574 
0.8789 
0.8801 
0.8801 
0.8801 
0.4562 
0.5296 
0.7096 
0.8574 
0.8773 
0.88 
0.8801 
0.8801 
0.8801 
0.6956 
0.7951 
0.8657 
0.879 
0.88 
0.8801 
0.8801 
0.8801 
0.8801 
0.8647 
0.8759 
0.8796 
0.8801 
0.8801 
0.8801 
0.8801 
0.8801 
0.8801 
0.8797 
0.88 
0.8801 
0.8801 
0.8801 
0.8801 
0.8801 
0.8797 
0.8788 
0.8801 
0.8801 
0.8801 
0.8801 
0.8801 
0.8801 
0.8801 
0.8788 
0.8768 
SCALARS So_DAY=1825 double 1
LOOKUP_TABLE default
0.2931 
0.3009 
0.3253 
0.3744 
0.3977 
0.5168 
0.7565 
0.8722 
0.88 
0.3009 
0.315 
0.3513 
0.3977 
0.4277 
0.5822 
0.8182 
0.8773 
0.8801 
0.3252 
0.3512 
0.3894 
0.4433 
0.4926 
0.7126 
0.8642 
0.8796 
0.8801 
0.3742 
0.3976 
0.4433 
0.5414 
0.6505 
0.8436 
0.8781 
0.8801 
0.8801 
0.3975 
0.4273 
0.4925 
0.6507 
0.798 
0.873 
0.8798 
0.8801 
0.8801 
0.5264 
0.594 
0.724 
0.8469 
0.8737 
0.8797 
0.8801 
0.8801 
0.8801 
0.7709 
0.8268 
0.8666 
0.8784 
0.8798 
0.8801 
0.8801 
0.8801 
0.8801 
0.8738 
0.8779 
0.8797 
0.8801 
0.8801 
0.8801 
0.8801 
0.8797 
0.8788 
0.88 
0.8801 
0.8801 
0.8801 
0.8801 
0.8801 
0.8801 
0.8788 
0.8768 
SCALARS So_DAY=2190 double 1
LOOKUP_TABLE default
0.2928 
0.3001 
0.3162 
0.3532 
0.37 
0.4427 
0.6032 
0.8304 
0.8786 
0.3001 
0.3085 
0.3344 
0.3695 
0.393 
0.4746 
0.6688 
0.8555 
0.8795 
0.3161 
0.3344 
0.3658 
0.4008 
0.4232 
0.5372 
0.7697 
0.8727 
0.88 
0.353 
0.3693 
0.4007 
0.4502 
0.4882 
0.6676 
0.8501 
0.8788 
0.8801 
0.3697 
0.3928 
0.4229 
0.4881 
0.5477 
0.7788 
0.8713 
0.8798 
0.8801 
0.4494 
0.4829 
0.5491 
0.6825 
0.7886 
0.8683 
0.8793 
0.8801 
0.8801 
0.623 
0.6901 
0.7859 
0.8555 
0.873 
0.8794 
0.8801 
0.8801 
0.8801 
0.8405 
0.8609 
0.8744 
0.8791 
0.8799 
0.8801 
0.8801 
0.8797 
0.8788 
0.8791 
0.8797 
0.8801 
0.8801 
0.8801 
0.8801 
0.8801 
0.8788 
0.8768 
SCALARS So_DAY=2555 double 1
LOOKUP_TABLE default
0.2925 
0.2998 
0.3114 
0.3391 
0.35 
0.4061 
0.5067 
0.7299 
0.8704 
0.2998 
0.3055 
0.324 
0.3494 
0.3709 
0.4254 
0.5431 
0.7787 
0.8753 
0.3113 
0.324 
0.349 
0.3772 
0.3955 
0.4585 
0.6117 
0.8324 
0.8787 
0.339 
0.3492 
0.377 
0.41 
0.429 
0.5207 
0.7285 
0.8663 
0.8798 
0.3498 
0.3706 
0.3953 
0.4288 
0.4532 
0.5729 
0.8018 
0.8748 
0.8801 
0.4106 
0.4311 
0.4662 
0.5323 
0.5889 
0.7743 
0.867 
0.8793 
0.8801 
0.5217 
0.5615 
0.6357 
0.7515 
0.8162 
0.8683 
0.8787 
0.8801 
0.8801 
0.7534 
0.798 
0.8437 
0.8699 
0.8763 
0.8795 
0.8801 
0.8797 
0.8789 
0.8731 
0.8768 
0.8791 
0.8799 
0.8801 
0.8801 
0.8801 
0.8789 
0.8769 
SCALARS So_DAY=2920 double 1
LOOKUP_TABLE default
0.2926 
0.2999 
0.3093 
0.3303 
0.3359 
0.3847 
0.4539 
0.6186 
0.8421 
0.2999 
0.3046 
0.3182 
0.3353 
0.3539 
0.3995 
0.4753 
0.6613 
0.857 
0.3093 
0.3182 
0.3377 
0.3593 
0.3771 
0.4199 
0.5112 
0.7277 
0.8702 
0.3302 
0.3352 
0.3592 
0.3892 
0.4021 
0.4542 
0.5759 
0.8039 
0.8771 
0.3357 
0.3537 
0.3769 
0.402 
0.4141 
0.4756 
0.6268 
0.839 
0.8788 
0.3882 
0.4032 
0.4251 
0.4618 
0.485 
0.5923 
0.7873 
0.871 
0.8798 
0.4646 
0.4882 
0.5281 
0.5998 
0.6576 
0.7959 
0.8643 
0.8784 
0.88 
0.645 
0.6898 
0.7557 
0.8224 
0.8506 
0.8727 
0.8785 
0.8795 
0.8788 
0.8522 
0.8637 
0.8733 
0.8781 
0.8792 
0.8799 
0.88 
0.8788 
0.8768 
SCALARS So_DAY=3285 double 1
LOOKUP_TABLE default
0.2928 
0.3001 
0.3083 
0.3246 
0.3257 
0.3681 
0.4228 
0.5405 
0.7854 
0.3001 
0.3042 
0.3148 
0.3251 
0.3407 
0.3821 
0.4368 
0.5662 
0.8092 
0.3083 
0.3148 
0.3298 
0.3453 
0.3616 
0.3988 
0.4583 
0.6084 
0.8376 
0.3244 
0.325 
0.3452 
0.3727 
0.3862 
0.4196 
0.4923 
0.6766 
0.8613 
0.3255 
0.3404 
0.3614 
0.3861 
0.3967 
0.4314 
0.511 
0.7216 
0.8699 
0.3713 
0.3853 
0.4021 
0.4247 
0.4376 
0.4926 
0.6164 
0.8192 
0.8772 
0.4307 
0.446 
0.47 
0.5078 
0.5304 
0.6304 
0.7853 
0.8647 
0.8791 
0.5614 
0.5905 
0.6387 
0.7111 
0.7559 
0.83 
0.8662 
0.8767 
0.8785 
0.8053 
0.8267 
0.8503 
0.8678 
0.8735 
0.8779 
0.8792 
0.8785 
0.8768 
SCALARS So_DAY=3650 double 1
LOOKUP_TABLE default
0.293 
0.3002 
0.3078 
0.3208 
0.3184 
0.355 
0.4033 
0.4914 
0.7176 
0.3002 
0.3041 
0.3129 
0.3179 
0.3305 
0.3678 
0.4131 
0.5067 
0.7403 
0.3078 
0.3129 
0.3244 
0.3344 
0.3487 
0.3837 
0.4272 
0.5297 
0.7706 
0.3206 
0.3178 
0.3343 
0.3588 
0.3718 
0.4007 
0.4474 
0.5645 
0.8059 
0.3182 
0.3303 
0.3485 
0.3717 
0.383 
0.4078 
0.4575 
0.5829 
0.8249 
0.3578 
0.3706 
0.3867 
0.4038 
0.4118 
0.4438 
0.5077 
0.6756 
0.8582 
0.4091 
0.4199 
0.4355 
0.4583 
0.4699 
0.5161 
0.6134 
0.7909 
0.8719 
0.507 
0.5247 
0.5517 
0.5931 
0.617 
0.7018 
0.7986 
0.8561 
0.8752 
0.7423 
0.7655 
0.7952 
0.8275 
0.8436 
0.8645 
0.8733 
0.8754 
0.8754 
SCALARS So_DAY=4015 double 1
LOOKUP_TABLE default
0.2933 
0.3002 
0.3076 
0.3183 
0.3132 
0.3445 
0.3895 
0.4597 
0.6586 
0.3002 
0.3041 
0.3118 
0.3127 
0.3227 
0.3558 
0.3978 
0.4696 
0.6742 
0.3075 
0.3118 
0.3208 
0.3259 
0.3382 
0.3707 
0.4077 
0.4828 
0.6941 
0.3182 
0.3126 
0.3258 
0.3472 
0.3592 
0.3872 
0.4205 
0.4997 
0.7197 
0.3131 
0.3225 
0.338 
0.3591 
0.3699 
0.3942 
0.4264 
0.5062 
0.7308 
0.347 
0.3585 
0.3734 
0.39 
0.3968 
0.4159 
0.4547 
0.5452 
0.7783 
0.3945 
0.4027 
0.4137 
0.4281 
0.4349 
0.4603 
0.5043 
0.6157 
0.8219 
0.4716 
0.483 
0.4983 
0.5189 
0.5278 
0.5649 
0.6298 
0.7512 
0.8508 
0.6821 
0.6995 
0.7225 
0.7513 
0.7643 
0.8001 
0.8326 
0.8534 
0.8653 
SCALARS So_DAY=4380 double 1
LOOKUP_TABLE default
0.2935 
0.3002 
0.3075 
0.3167 
0.3096 
0.3361 
0.3781 
0.4381 
0.6127 
0.3002 
0.3041 
0.3112 
0.3091 
0.3169 
0.346 
0.3859 
0.4449 
0.6226 
0.3074 
0.3112 
0.3185 
0.3194 
0.3297 
0.3594 
0.3949 
0.453 
0.6333 
0.3166 
0.3091 
0.3193 
0.3375 
0.3483 
0.3749 
0.4039 
0.4623 
0.6442 
0.3094 
0.3167 
0.3295 
0.3482 
0.3581 
0.382 
0.4076 
0.465 
0.6442 
0.3384 
0.3483 
0.3619 
0.3775 
0.3845 
0.4005 
0.4237 
0.4809 
0.6623 
0.3828 
0.3905 
0.3994 
0.4091 
0.4134 
0.4276 
0.4518 
0.5042 
0.6819 
0.4476 
0.4553 
0.4648 
0.4759 
0.4792 
0.4927 
0.5122 
0.557 
0.713 
0.6336 
0.6452 
0.6584 
0.6728 
0.6748 
0.6899 
0.7036 
0.7243 
0.7802 
SCALARS So_DAY=4745 double 1
LOOKUP_TABLE default
0.2937 
0.3002 
0.3074 
0.3157 
0.307 
0.3293 
0.3683 
0.4226 
0.5773 
0.3002 
0.3041 
0.3109 
0.3067 
0.3126 
0.3378 
0.3756 
0.4275 
0.5835 
0.3074 
0.3109 
0.317 
0.3146 
0.3229 
0.3497 
0.3841 
0.4329 
0.5888 
0.3156 
0.3066 
0.3145 
0.3297 
0.339 
0.3639 
0.3927 
0.438 
0.5916 
0.3069 
0.3124 
0.3228 
0.339 
0.3479 
0.3706 
0.3957 
0.4388 
0.5888 
0.3314 
0.34 
0.352 
0.3665 
0.3731 
0.389 
0.4058 
0.4457 
0.5864 
0.3728 
0.38 
0.3885 
0.3969 
0.3997 
0.4084 
0.4217 
0.4546 
0.575 
0.4305 
0.436 
0.4422 
0.4483 
0.4495 
0.4545 
0.4601 
0.476 
0.5567 
0.5959 
0.6033 
0.6103 
0.6155 
0.6133 
0.6089 
0.5936 
0.5686 
0.575 
SCALARS So_DAY=5110 double 1
LOOKUP_TABLE default
0.294 
0.3003 
0.3075 
0.3151 
0.3053 
0.3239 
0.3598 
0.4105 
0.5481 
0.3003 
0.3042 
0.3108 
0.305 
0.3094 
0.331 
0.3665 
0.4144 
0.5522 
0.3074 
0.3108 
0.3161 
0.311 
0.3177 
0.3414 
0.3744 
0.4182 
0.5546 
0.315 
0.305 
0.311 
0.3234 
0.3314 
0.3543 
0.3826 
0.4214 
0.5536 
0.3053 
0.3094 
0.3176 
0.3313 
0.3392 
0.3604 
0.3856 
0.4215 
0.5498 
0.3258 
0.3331 
0.3437 
0.3568 
0.3629 
0.3783 
0.3953 
0.4243 
0.5412 
0.3642 
0.3709 
0.3788 
0.3869 
0.3898 
0.3973 
0.4052 
0.4273 
0.5237 
0.4175 
0.4218 
0.4261 
0.4298 
0.43 
0.4311 
0.4317 
0.4402 
0.5025 
0.5659 
0.5708 
0.5743 
0.5745 
0.5709 
0.56 
0.5387 
0.5117 
0.5122 
SCALARS So_DAY=5475 double 1
LOOKUP_TABLE default
0.2943 
0.3003 
0.3075 
0.3148 
0.3042 
0.3195 
0.3523 
0.401 
0.5237 
0.3003 
0.3042 
0.3108 
0.304 
0.3072 
0.3255 
0.3584 
0.404 
0.5263 
0.3075 
0.3108 
0.3156 
0.3085 
0.3137 
0.3344 
0.3657 
0.407 
0.5271 
0.3147 
0.304 
0.3084 
0.3184 
0.3252 
0.346 
0.3733 
0.4093 
0.5244 
0.3042 
0.3072 
0.3136 
0.3252 
0.3319 
0.3515 
0.3762 
0.4092 
0.5204 
0.3212 
0.3274 
0.3366 
0.3483 
0.3539 
0.3686 
0.3859 
0.4108 
0.5106 
0.3566 
0.3627 
0.3701 
0.3777 
0.3804 
0.388 
0.3963 
0.4118 
0.4933 
0.4072 
0.4106 
0.4139 
0.4164 
0.4163 
0.4162 
0.4153 
0.4201 
0.4721 
0.5404 
0.5437 
0.5452 
0.5431 
0.5389 
0.5266 
0.506 
0.4809 
0.4809 
SCALARS So_DAY=5840 double 1
LOOKUP_TABLE default
0.2946 
0.3003 
0.3075 
0.3146 
0.3035 
0.316 
0.3458 
0.3929 
0.5034 
0.3003 
0.3043 
0.3108 
0.3033 
0.3057 
0.3209 
0.3512 
0.3957 
0.5049 
0.3075 
0.3108 
0.3153 
0.3067 
0.3107 
0.3286 
0.3579 
0.3983 
0.5048 
0.3145 
0.3033 
0.3066 
0.3146 
0.3202 
0.3388 
0.365 
0.4 
0.5014 
0.3035 
0.3057 
0.3107 
0.3202 
0.3259 
0.3438 
0.3676 
0.3999 
0.4975 
0.3176 
0.3227 
0.3306 
0.3411 
0.346 
0.3599 
0.377 
0.4011 
0.4875 
0.3499 
0.3555 
0.3622 
0.3693 
0.3719 
0.3791 
0.3879 
0.4021 
0.4705 
0.3988 
0.4016 
0.4043 
0.4061 
0.4059 
0.4057 
0.405 
0.408 
0.4516 
0.5189 
0.521 
0.5213 
0.5181 
0.514 
0.5021 
0.4826 
0.4592 
0.4591 
SCALARS So_DAY=6205 double 1
LOOKUP_TABLE default
0.2949 
0.3003 
0.3076 
0.3145 
0.303 
0.3133 
0.3401 
0.3855 
0.4864 
0.3003 
0.3043 
0.3109 
0.3029 
0.3047 
0.3173 
0.3449 
0.3882 
0.4873 
0.3075 
0.3108 
0.3152 
0.3054 
0.3085 
0.3238 
0.351 
0.3907 
0.4865 
0.3144 
0.3029 
0.3054 
0.3117 
0.3162 
0.3327 
0.3574 
0.3923 
0.4827 
0.303 
0.3047 
0.3085 
0.3162 
0.3211 
0.3371 
0.3598 
0.392 
0.4786 
0.3146 
0.3189 
0.3257 
0.3348 
0.3392 
0.3521 
0.3688 
0.3933 
0.4688 
0.344 
0.349 
0.3552 
0.3617 
0.364 
0.3709 
0.3797 
0.3947 
0.4534 
0.3914 
0.3941 
0.3965 
0.398 
0.3977 
0.3975 
0.3972 
0.4003 
0.437 
0.5007 
0.502 
0.5016 
0.498 
0.4938 
0.4821 
0.4638 
0.4435 
0.4435 
SCALARS Sw_DAY=0 double 1
LOOKUP_TABLE default
0.12 
0.12 
0.12 
0.12 
0.12 
0.12 
0.12 
0.12 
0.12 
0.12 
0.12 
0.12 
0.12 
0.12 
0.12 
0.12 
0.12 
0.12 
0.12 
0.12 
0.12 
0.12 
0.12 
0.12 
0.12 
0.12 
0.12 
0.12 
0.12 
0.12 
0.12 
0.12 
0.12 
0.12 
0.12 
0.12 
0.12 
0.12 
0.12 
0.12 
0.12 
0.12 
0.12 
0.12 
0.12 
0.12 
0.12 
0.12 
0.12 
0.12 
0.12 
0.12 
0.12 
0.12 
0.12 
0.12 
0.12 
0.12 
0.12 
0.12 
0.12 
0.12 
0.12 
0.12 
0.12 
0.12 
0.12 
0.12 
0.12 
0.12 
0.12 
0.12 
0.12 
0.12 
0.12 
0.12 
0.12 
0.12 
0.12 
0.12 
0.12 
SCALARS Sw_DAY=365 double 1