# vtk DataFile Version 3.0
MOAB 5.4.1
ASCII
DATASET UNSTRUCTURED_GRID
POINTS 200 double
0 0 0
160 0 0
320 0 0
480 0 0
640 0 0
720 0 0
880 0 0
1040 0 0
1200 0 0
1360 0 0
0 160 0
160 160 0
320 160 0
480 160 0
640 160 0
720 160 0
880 160 0
1040 160 0
1200 160 0
1360 160 0
0 320 0
160 320 0
320 320 0
480 320 0
640 320 0
720 320 0
880 320 0
1040 320 0
1200 320 0
1360 320 0
0 480 0
160 480 0
320 480 0
480 480 0
640 480 0
720 480 0
880 480 0
1040 480 0
1200 480 0
1360 480 0
0 640 0
160 640 0
320 640 0
480 640 0
640 640 0
720 640 0
880 640 0
1040 640 0
1200 640 0
1360 640 0
0 720 0
160 720 0
320 720 0
480 720 0
640 720 0
720 720 0
880 720 0
1040 720 0
1200 720 0
1360 720 0
0 880 0
160 880 0
320 880 0
480 880 0
640 880 0
720 880 0
880 880 0
1040 880 0
1200 880 0
1360 880 0
0 1040 0
160 1040 0
320 1040 0
480 1040 0
640 1040 0
720 1040 0
880 1040 0
1040 1040 0
1200 1040 0
1360 1040 0
0 1200 0
160 1200 0
320 1200 0
480 1200 0
640 1200 0
720 1200 0
880 1200 0
1040 1200 0
1200 1200 0
1360 1200 0
0 1360 0
160 1360 0
320 1360 0
480 1360 0
640 1360 0
720 1360 0
880 1360 0
1040 1360 0
1200 1360 0
1360 1360 0
0 0 -30
160 0 -30
320 0 -30
480 0 -30
640 0 -30
720 0 -30
880 0 -30
1040 0 -30
1200 0 -30
1360 0 -30
0 160 -30
160 160 -30
320 160 -30
480 160 -30
640 160 -30
720 160 -30
880 160 -30
1040 160 -30
1200 160 -30
1360 160 -30
0 320 -30
160 320 -30
320 320 -30
480 320 -30
640 320 -30
720 320 -30
880 320 -30
1040 320 -30
1200 320 -30
1360 320 -30
0 480 -30
160 480 -30
320 480 -30
480 480 -30
640 480 -30
720 480 -30
880 480 -30
1040 480 -30
1200 480 -30
1360 480 -30
0 640 -30
160 640 -30
320 640 -30
480 640 -30
640 640 -30
720 640 -30
880 640 -30
1040 640 -30
1200 640 -30
1360 640 -30
0 720 -30
160 720 -30
320 720 -30
480 720 -30
640 720 -30
720 720 -30
880 720 -30
1040 720 -30
1200 720 -30
1360 720 -30
0 880 -30
160 880 -30
320 880 -30
480 880 -30
640 880 -30
720 880 -30
880 880 -30
1040 880 -30
1200 880 -30
1360 880 -30
0 1040 -30
160 1040 -30
320 1040 -30
480 1040 -30
640 1040 -30
720 1040 -30
880 1040 -30
1040 1040 -30
1200 1040 -30
1360 1040 -30
0 1200 -30
160 1200 -30
320 1200 -30
480 1200 -30
640 1200 -30
720 1200 -30
880 1200 -30
1040 1200 -30
1200 1200 -30
1360 1200 -30
0 1360 -30
160 1360 -30
320 1360 -30
480 1360 -30
640 1360 -30
720 1360 -30
880 1360 -30
1040 1360 -30
1200 1360 -30
1360 1360 -30
CELLS 81 729
8 0 1 11 10 100 101 111 110
8 10 11 21 20 110 111 121 120
8 20 21 31 30 120 121 131 130
8 30 31 41 40 130 131 141 140
8 40 41 51 50 140 141 151 150
8 50 51 61 60 150 151 161 160
8 60 61 71 70 160 161 171 170
8 70 71 81 80 170 171 181 180
8 80 81 91 90 180 181 191 190
8 1 2 12 11 101 102 112 111
8 11 12 22 21 111 112 122 121
8 21 22 32 31 121 122 132 131
8 31 32 42 41 131 132 142 141
8 41 42 52 51 141 142 152 151
8 51 52 62 61 151 152 162 161
8 61 62 72 71 161 162 172 171
8 71 72 82 81 171 172 182 181
8 81 82 92 91 181 182 192 191
8 2 3 13 12 102 103 113 112
8 12 13 23 22 112 113 123 122
8 22 23 33 32 122 123 133 132
8 32 33 43 42 132 133 143 142
8 42 43 53 52 142 143 153 152
8 52 53 63 62 152 153 163 162
8 62 63 73 72 162 163 173 172
8 72 73 83 82 172 173 183 182
8 82 83 93 92 182 183 193 192
8 3 4 14 13 103 104 114 113
8 13 14 24 23 113 114 124 123
8 23 24 34 33 123 124 134 133
8 33 34 44 43 133 134 144 143
8 43 44 54 53 143 144 154 153
8 53 54 64 63 153 154 164 163
8 63 64 74 73 163 164 174 173
8 73 74 84 83 173 174 184 183
8 83 84 94 93 183 184 194 193
8 4 5 15 14 104 105 115 114
8 14 15 25 24 114 115 125 124
8 24 25 35 34 124 125 135 134
8 34 35 45 44 134 135 145 144
8 44 45 55 54 144 145 155 154
8 54 55 65 64 154 155 165 164
8 64 65 75 74 164 165 175 174
8 74 75 85 84 174 175 185 184
8 84 85 95 94 184 185 195 194
8 5 6 16 15 105 106 116 115
8 15 16 26 25 115 116 126 125
8 25 26 36 35 125 126 136 135
8 35 36 46 45 135 136 146 145
8 45 46 56 55 145 146 156 155
8 55 56 66 65 155 156 166 165
8 65 66 76 75 165 166 176 175
8 75 76 86 85 175 176 186 185
8 85 86 96 95 185 186 196 195
8 6 7 17 16 106 107 117 116
8 16 17 27 26 116 117 127 126
8 26 27 37 36 126 127 137 136
8 36 37 47 46 136 137 147 146
8 46 47 57 56 146 147 157 156
8 56 57 67 66 156 157 167 166
8 66 67 77 76 166 167 177 176
8 76 77 87 86 176 177 187 186
8 86 87 97 96 186 187 197 196
8 7 8 18 17 107 108 118 117
8 17 18 28 27 117 118 128 127
8 27 28 38 37 127 128 138 137
8 37 38 48 47 137 138 148 147
8 47 48 58 57 147 148 158 157
8 57 58 68 67 157 158 168 167
8 67 68 78 77 167 168 178 177
8 77 78 88 87 177 178 188 187
8 87 88 98 97 187 188 198 197
8 8 9 19 18 108 109 119 118
8 18 19 29 28 118 119 129 128
8 28 29 39 38 128 129 139 138
8 38 39 49 48 138 139 149 148
8 48 49 59 58 148 149 159 158
8 58 59 69 68 158 159 169 168
8 68 69 79 78 168 169 179 178
8 78 79 89 88 178 179 189 188
8 88 89 99 98 188 189 199 198
CELL_TYPES 81
12
12
12
12
12
12
12
12
12
12
12
12
12
12
12
12
12
12
12
12
12
12
12
12
12
12
12
12
12
12
12
12
12
12
12
12
12
12
12
12
12
12
12
12
12
12
12
12
12
12
12
12
12
12
12
12
12
12
12
12
12
12
12
12
12
12
12
12
12
12
12
12
12
12
12
12
12
12
12
12
12
POINT_DATA 200
SCALARS GLOBAL_ID int 1
LOOKUP_TABLE default
-1 
-1 
-1 
-1 
-1 
-1 
-1 
-1 
-1 
-1 
-1 
-1 
-1 
-1 
-1 
-1 
-1 
-1 
-1 
-1 
-1 
-1 
-1 
-1 
-1 
-1 
-1 
-1 
-1 
-1 
-1 
-1 
-1 
-1 
-1 
-1 
-1 
-1 
-1 
-1 
-1 
-1 
-1 
-1 
-1 
-1 
-1 
-1 
-1 
-1 
-1 
-1 
-1 
-1 
-1 
-1 
-1 
-1 
-1 
-1 
-1 
-1 
-1 
-1 
-1 
-1 
-1 
-1 
-1 
-1 
-1 
-1 
-1 
-1 
-1 
-1 
-1 
-1 
-1 
-1 
-1 
-1 
-1 
-1 
-1 
-1 
-1 
-1 
-1 
-1 
-1 
-1 
-1 
-1 
-1 
-1 
-1 
-1 
-1 
-1 
-1 
-1 
-1 
-1 
-1 
-1 
-1 
-1 
-1 
-1 
-1 
-1 
-1 
-1 
-1 
-1 
-1 
-1 
-1 
-1 
-1 
-1 
-1 
-1 
-1 
-1 
-1 
-1 
-1 
-1 
-1 
-1 
-1 
-1 
-1 
-1 
-1 
-1 
-1 
-1 
-1 
-1 
-1 
-1 
-1 
-1 
-1 
-1 
-1 
-1 
-1 
-1 
-1 
-1 
-1 
-1 
-1 
-1 
-1 
-1 
-1 
-1 
-1 
-1 
-1 
-1 
-1 
-1 
-1 
-1 
-1 
-1 
-1 
-1 
-1 
-1 
-1 
-1 
-1 
-1 
-1 
-1 
-1 
-1 
-1 
-1 
-1 
-1 
-1 
-1 
-1 
-1 
-1 
-1 
-1 
-1 
-1 
-1 
-1 
-1 
CELL_DATA 81
SCALARS GLOBAL_ID int 1
LOOKUP_TABLE default
-1 
-1 
-1 
-1 
-1 
-1 
-1 
-1 
-1 
-1 
-1 
-1 
-1 
-1 
-1 
-1 
-1 
-1 
-1 
-1 
-1 
-1 
-1 
-1 
-1 
-1 
-1 
-1 
-1 
-1 
-1 
-1 
-1 
-1 
-1 
-1 
-1 
-1 
-1 
-1 
-1 
-1 
-1 
-1 
-1 
-1 
-1 
-1 
-1 
-1 
-1 
-1 
-1 
-1 
-1 
-1 
-1 
-1 
-1 
-1 
-1 
-1 
-1 
-1 
-1 
-1 
-1 
-1 
-1 
-1 
-1 
-1 
-1 
-1 
-1 
-1 
-1 
-1 
-1 
-1 
-1 
SCALARS id int 1
LOOKUP_TABLE default
0 
1 
2 
3 
4 
5 
6 
7 
8 
9 
10 
11 
12 
13 
14 
15 
16 
17 
18 
19 
20 
21 
22 
23 
24 
25 
26 
27 
28 
29 
30 
31 
32 
33 
34 
35 
36 
37 
38 
39 
40 
41 
42 
43 
44 
45 
46 
47 
48 
49 
50 
51 
52 
53 
54 
55 
56 
57 
58 
59 
60 
61 
62 
63 
64 
65 
66 
67 
68 
69 
70 
71 
72 
73 
74 
75 
76 
77 
78 
79 
80 
SCALARS permeability double 1
LOOKUP_TABLE default
100 
100 
100 
100 
100 
100 
100 
100 
100 
100 
100 
100 
100 
100 
100 
100 
100 
100 
100 
100 
100 
100 
100 
100 
100 
100 
100 
100 
100 
100 
100 
100 
100 
100 
100 
100 
100 
100 
100 
100 
100 
100 
100 
100 
100 
100 
100 
100 
100 
100 
100 
100 
100 
100 
100 
100 
100 
100 
100 
100 
100 
100 
100 
100 
100 
100 
100 
100 
100 
100 
100 
100 
100 
100 
100 
100 
100 
100 
100 
100 
100 
SCALARS porosity double 1
LOOKUP_TABLE default
0.28 
0.28 
0.28 
0.28 
0.28 
0.28 
0.28 
0.28 
0.28 
0.28 
0.28 
0.28 
0.28 
0.28 
0.28 
0.28 
0.28 
0.28 
0.28 
0.28 
0.28 
0.28 
0.28 
0.28 
0.28 
0.28 
0.28 
0.28 
0.28 
0.28 
0.28 
0.28 
0.28 
0.28 
0.28 
0.28 
0.28 
0.28 
0.28 
0.28 
0.28 
0.28 
0.28 
0.28 
0.28 
0.3 
0.3 
0.3 
0.3 
0.3 
0.3 
0.3 
0.3 
0.3 
0.3 
0.3 
0.3 
0.3 
0.3 
0.3 
0.3 
0.3 
0.3 
0.3 
0.3 
0.3 
0.3 
0.3 
0.3 
0.3 
0.3 
0.3 
0.3 
0.3 
0.3 
0.3 
0.3 
0.3 
0.3 
0.3 
0.3 
SCALARS P_DAY=0 double 1
LOOKUP_TABLE default
5382 
5382 
5382 
5382 
5382 
5382 
5382 
5382 
5382 
5382 
5382 
5382 
5382 
5382 
5382 
5382 
5382 
5382 
5382 
5382 
5382 
5382 
5382 
5382 
5382 
5382 
5382 
5382 
5382 
5382 
5382 
5382 
5382 
5382 
5382 
5382 
5382 
5382 
5382 
5382 
5382 
5382 
5382 
5382 
5382 
5382 
5382 
5382 
5382 
5382 
5382 
5382 
5382 
5382 
5382 
5382 
5382 
5382 
5382 
5382 
5382 
5382 
5382 
5382 
5382 
5382 
5382 
5382 
5382 
5382 
5382 
5382 
5382 
5382 
5382 
5382 
5382 
5382 
5382 
5382 
5382 
SCALARS P_DAY=365 double 1
LOOKUP_TABLE default
2479 
2479 
2478 
2476 
2474 
2473 
2471 
2469 
2469 
2479 
2478 
2477 
2475 
2473 
2471 
2469 
2467 
2466 
2478 
2477 
2475 
2473 
2471 
2468 
2466 
2463 
2462 
2476 
2475 
2473 
2470 
2467 
2464 
2460 
2457 
2454 
2475 
2473 
2471 
2467 
2464 
2460 
2454 
2449 
2446 
2473 
2472 
2469 
2464 
2460 
2455 
2448 
2441 
2436 
2472 
2470 
2466 
2461 
2455 
2448 
2437 
2425 
2416 
2470 
2468 
2464 
2457 
2450 
2441 
2425 
2405 
2384 
2470 
2467 
2463 
2455 
2447 
2436 
2416 
2384 
2325 
SCALARS P_DAY=730 double 1
LOOKUP_TABLE default
4255 
4170 
4108 
4062 
4051 
4044 
4037 
4032 
4030 
4170 
4129 
4082 
4057 
4048 
4042 
4035 
4031 
4029 
4108 
4082 
4062 
4050 
4044 
4038 
4032 
4028 
4026 
4062 
4057 
4050 
4043 
4038 
4033 
4028 
4024 
4022 
4051 
4048 
4043 
4038 
4033 
4029 
4024 
4021 
4019 
4043 
4041 
4038 
4033 
4029 
4025 
4020 
4017 
4014 
4036 
4035 
4032 
4028 
4024 
4020 
4015 
4011 
4007 
4032 
4030 
4028 
4024 
4020 
4016 
4011 
4004 
3998 
4030 
4028 
4026 
4022 
4018 
4014 
4007 
3998 
3983 
SCALARS P_DAY=1095 double 1
LOOKUP_TABLE default
5087 
5004 
4951 
4906 
4879 
4862 
4854 
4849 
4846 
5004 
4970 
4930 
4891 
4870 
4859 
4852 
4847 
4844 
4951 
4930 
4901 
4871 
4861 
4854 
4847 
4842 
4840 
4906 
4891 
4871 
4860 
4854 
4848 
4841 
4836 
4834 
4879 
4869 
4861 
4854 
4848 
4843 
4836 
4831 
4828 
4862 
4859 
4854 
4848 
4842 
4837 
4830 
4824 
4820 
4853 
4851 
4847 
4841 
4836 
4830 
4822 
4814 
4808 
4848 
4846 
4842 
4836 
4830 
4824 
4813 
4801 
4789 
4846 
4844 
4840 
4834 
4827 
4820 
4808 
4789 
4759 
SCALARS P_DAY=1460 double 1
LOOKUP_TABLE default
5934 
5855 
5804 
5765 
5738 
5715 
5698 
5692 
5689 
5855 
5822 
5787 
5752 
5729 
5707 
5695 
5690 
5687 
5804 
5787 
5761 
5732 
5712 
5699 
5691 
5686 
5683 
5764 
5752 
5732 
5708 
5698 
5691 
5684 
5679 
5676 
5738 
5729 
5712 
5698 
5691 
5685 
5678 
5673 
5670 
5714 
5707 
5698 
5691 
5685 
5680 
5672 
5666 
5662 
5697 
5695 
5690 
5684 
5678 
5672 
5663 
5655 
5649 
5692 
5690 
5685 
5679 
5673 
5666 
5655 
5642 
5629 
5689 
5687 
5683 
5676 
5670 
5662 
5649 
5629 
5598 
SCALARS P_DAY=1825 double 1
LOOKUP_TABLE default
5999 
5920 
5870 
5832 
5807 
5784 
5758 
5748 
5745 
5920 
5887 
5853 
5820 
5797 
5776 
5753 
5745 
5742 
5869 
5853 
5828 
5801 
5781 
5760 
5745 
5739 
5736 
5831 
5820 
5801 
5778 
5760 
5745 
5736 
5730 
5727 
5807 
5797 
5780 
5760 
5746 
5737 
5728 
5722 
5718 
5784 
5776 
5760 
5745 
5737 
5730 
5720 
5712 
5707 
5758 
5752 
5745 
5736 
5728 
5720 
5709 
5697 
5688 
5748 
5745 
5739 
5730 
5722 
5712 
5697 
5678 
5660 
5745 
5742 
5736 
5727 
5718 
5707 
5688 
5660 
5613 
SCALARS P_DAY=2190 double 1
LOOKUP_TABLE default
6056 
5978 
5927 
5890 
5867 
5846 
5822 
5804 
5800 
5978 
5944 
5911 
5879 
5858 
5838 
5814 
5800 
5796 
5927 
5910 
5887 
5862 
5843 
5824 
5802 
5793 
5790 
5890 
5879 
5862 
5840 
5823 
5806 
5789 
5783 
5780 
5867 
5858 
5843 
5823 
5807 
5792 
5781 
5774 
5771 
5846 
5838 
5824 
5805 
5791 
5782 
5772 
5765 
5760 
5821 
5813 
5801 
5789 
5781 
5773 
5761 
5749 
5740 
5804 
5800 
5793 
5783 
5774 
5765 
5749 
5731 
5712 
5800 
5796 
5790 
5780 
5771 
5760 
5740 
5712 
5665 
SCALARS P_DAY=2555 double 1
LOOKUP_TABLE default
6115 
6037 
5986 
5950 
5928 
5908 
5885 
5866 
5858 
6037 
6004 
5970 
5940 
5920 
5901 
5879 
5860 
5854 
5986 
5970 
5947 
5923 
5905 
5888 
5866 
5850 
5846 
5950 
5939 
5923 
5903 
5887 
5870 
5849 
5839 
5836 
5927 
5920 
5905 
5886 
5871 
5855 
5836 
5829 
5825 
5908 
5901 
5887 
5870 
5855 
5838 
5826 
5819 
5814 
5884 
5878 
5865 
5848 
5836 
5826 
5814 
5803 
5794 
5865 
5859 
5850 
5839 
5829 
5819 
5803 
5784 
5766 
5858 
5854 
5846 
5836 
5825 
5814 
5794 
5766 
5718 
SCALARS P_DAY=2920 double 1
LOOKUP_TABLE default
5713 
5633 
5582 
5546 
5524 
5505 
5482 
5464 
5452 
5633 
5600 
5566 
5535 
5516 
5498 
5476 
5457 
5447 
5582 
5566 
5543 
5519 
5502 
5484 
5463 
5444 
5436 
5546 
5535 
5519 
5499 
5483 
5466 
5445 
5427 
5422 
5524 
5516 
5501 
5483 
5467 
5450 
5429 
5413 
5410 
5505 
5498 
5484 
5466 
5450 
5434 
5411 
5400 
5396 
5482 
5475 
5462 
5444 
5428 
5411 
5394 
5382 
5373 
5463 
5455 
5443 
5426 
5413 
5400 
5382 
5361 
5340 
5452 
5446 
5436 
5422 
5410 
5396 
5373 
5340 
5287 
SCALARS P_DAY=3285 double 1
LOOKUP_TABLE default
5282 
5200 
5149 
5113 
5091 
5073 
5052 
5035 
5023 
5200 
5167 
5133 
5102 
5084 
5066 
5045 
5028 
5016 
5149 
5133 
5110 
5086 
5070 
5053 
5032 
5015 
5003 
5113 
5102 
5086 
5067 
5051 
5035 
5015 
4995 
4986 
5091 
5083 
5069 
5051 
5036 
5019 
4998 
4978 
4971 
5073 
5066 
5053 
5035 
5019 
5003 
4980 
4960 
4955 
5051 
5044 
5031 
5014 
4997 
4980 
4954 
4939 
4931 
5033 
5027 
5013 
4994 
4977 
4960 
4939 
4918 
4898 
5021 
5014 
5002 
4986 
4971 
4956 
4931 
4899 
4846 
SCALARS P_DAY=3650 double 1
LOOKUP_TABLE default
4830 
4747 
4696 
4659 
4638 
4620 
4601 
4585 
4574 
4747 
4713 
4679 
4649 
4630 
4613 
4594 
4578 
4566 
4695 
4679 
4656 
4633 
4616 
4600 
4581 
4564 
4552 
4659 
4648 
4632 
4613 
4598 
4582 
4562 
4544 
4531 
4638 
4630 
4616 
4598 
4583 
4567 
4545 
4526 
4512 
4620 
4613 
4600 
4582 
4566 
4550 
4527 
4505 
4492 
4599 
4593 
4580 
4561 
4545 
4527 
4500 
4474 
4463 
4583 
4576 
4562 
4543 
4525 
4504 
4474 
4448 
4429 
4571 
4564 
4550 
4530 
4512 
4493 
4464 
4429 
4377 
SCALARS P_DAY=4015 double 1
LOOKUP_TABLE default
4348 
4264 
4213 
4177 
4156 
4139 
4120 
4106 
4098 
4264 
4231 
4196 
4166 
4148 
4132 
4113 
4099 
4090 
4213 
4196 
4174 
4150 
4134 
4118 
4100 
4085 
4074 
4176 
4166 
4150 
4131 
4116 
4100 
4081 
4064 
4051 
4155 
4148 
4133 
4115 
4100 
4084 
4063 
4044 
4028 
4138 
4131 
4118 
4100 
4084 
4067 
4043 
4021 
4002 
4119 
4112 
4098 
4079 
4062 
4043 
4015 
3986 
3963 
4104 
4097 
4082 
4062 
4042 
4020 
3985 
3946 
3917 
4094 
4087 
4071 
4048 
4026 
4002 
3963 
3917 
3860 
SCALARS P_DAY=4380 double 1
LOOKUP_TABLE default
3840 
3756 
3705 
3668 
3648 
3631 
3613 
3600 
3593 
3756 
3722 
3688 
3658 
3640 
3623 
3606 
3593 
3585 
3705 
3688 
3665 
3641 
3625 
3610 
3592 
3578 
3570 
3668 
3657 
3641 
3622 
3607 
3592 
3572 
3557 
3547 
3647 
3639 
3625 
3607 
3591 
3575 
3553 
3535 
3523 
3630 
3623 
3610 
3591 
3575 
3557 
3533 
3511 
3495 
3612 
3605 
3591 
3572 
3553 
3532 
3502 
3470 
3444 
3599 
3591 
3577 
3555 
3534 
3510 
3470 
3421 
3373 
3591 
3583 
3568 
3545 
3521 
3493 
3443 
3373 
3266 
SCALARS P_DAY=4745 double 1
LOOKUP_TABLE default
3298 
3213 
3162 
3126 
3105 
3088 
3071 
3058 
3052 
3213 
3180 
3145 
3115 
3097 
3081 
3064 
3051 
3044 
3162 
3145 
3122 
3098 
3082 
3067 
3050 
3036 
3029 
3126 
3115 
3098 
3079 
3064 
3049 
3030 
3015 
3006 
3105 
3097 
3082 
3064 
3048 
3032 
3011 
2993 
2982 
3088 
3081 
3067 
3049 
3032 
3015 
2990 
2967 
2953 
3071 
3064 
3050 
3030 
3011 
2990 
2957 
2925 
2900 
3058 
3051 
3036 
3015 
2993 
2967 
2925 
2873 
2820 
3051 
3044 
3029 
3006 
2981 
2953 
2899 
2820 
2686 
SCALARS P_DAY=5110 double 1
LOOKUP_TABLE default
2783 
2699 
2648 
2611 
2591 
2574 
2557 
2545 
2539 
2699 
2665 
2631 
2600 
2583 
2567 
2550 
2538 
2531 
2648 
2631 
2608 
2584 
2568 
2554 
2537 
2524 
2517 
2611 
2600 
2584 
2565 
2550 
2536 
2518 
2504 
2495 
2591 
2583 
2568 
2550 
2535 
2520 
2500 
2482 
2472 
2574 
2567 
2554 
2536 
2520 
2503 
2479 
2458 
2444 
2557 
2550 
2537 
2518 
2500 
2479 
2448 
2415 
2390 
2545 
2538 
2524 
2504 
2482 
2458 
2415 
2362 
2307 
2539 
2531 
2517 
2495 
2472 
2444 
2390 
2307 
2156 
SCALARS P_DAY=5475 double 1
LOOKUP_TABLE default
2551 
2468 
2416 
2379 
2358 
2341 
2324 
2312 
2306 
2468 
2434 
2399 
2368 
2350 
2334 
2317 
2305 
2298 
2416 
2399 
2376 
2352 
2336 
2320 
2303 
2290 
2283 
2380 
2369 
2352 
2332 
2317 
2302 
2283 
2267 
2258 
2359 
2351 
2336 
2317 
2301 
2284 
2263 
2244 
2232 
2342 
2334 
2321 
2302 
2285 
2266 
2241 
2216 
2201 
2325 
2318 
2304 
2283 
2263 
2241 
2206 
2170 
2142 
2313 
2305 
2290 
2267 
2244 
2216 
2170 
2113 
2055 
2306 
2299 
2283 
2259 
2232 
2201 
2143 
2056 
1910 
SCALARS So_DAY=0 double 1
LOOKUP_TABLE default
0.88 
0.88 
0.88 
0.88 
0.88 
0.88 
0.88 
0.88 
0.88 
0.88 
0.88 
0.88 
0.88 
0.88 
0.88 
0.88 
0.88 
0.88 
0.88 
0.88 
0.88 
0.88 
0.88 
0.88 
0.88 
0.88 
0.88 
0.88 
0.88 
0.88 
0.88 
0.88 
0.88 
0.88 
0.88 
0.88 
0.88 
0.88 
0.88 
0.88 
0.88 
0.88 
0.88 
0.88 
0.88 
0.88 
0.88 
0.88 
0.88 
0.88 
0.88 
0.88 
0.88 
0.88 
0.88 
0.88 
0.88 
0.88 
0.88 
0.88 
0.88 
0.88 
0.88 
0.88 
0.88 
0.88 
0.88 
0.88 
0.88 
0.88 
0.88 
0.88 
0.88 
0.88 
0.88 
0.88 
0.88 
0.88 
0.88 
0.88 
0.88 
SCALARS So_DAY=365 double 1
LOOKUP_TABLE default
0.8751 
0.875 
0.8749 
0.8747 
0.8745 
0.8743 
0.8741 
0.8739 
0.8738 
0.875 
0.8749 
0.8748 
0.8745 
0.8744 
0.8742 
0.8739 
0.8737 
0.8736 
0.8749 
0.8748 
0.8746 
0.8743 
0.8741 
0.8738 
0.8735 
0.8732 
0.8731 
0.8747 
0.8746 
0.8743 
0.874 
0.8737 
0.8733 
0.8729 
0.8724 
0.8722 
0.8745 
0.8744 
0.8741 
0.8737 
0.8733 
0.8728 
0.8722 
0.8716 
0.8712 
0.8744 
0.8742 
0.8739 
0.8734 
0.8728 
0.8723 
0.8714 
0.8706 
0.8701 
0.8742 
0.874 
0.8736 
0.8729 
0.8722 
0.8715 
0.8702 
0.8688 
0.8676 
0.874 
0.8738 
0.8733 
0.8725 
0.8717 
0.8706 
0.8688 
0.8663 
0.8635 
0.8739 
0.8737 
0.8731 
0.8723 
0.8713 
0.8701 
0.8677 
0.8635 
0.8555 
SCALARS So_DAY=730 double 1
LOOKUP_TABLE default
0.3084 
0.3754 
0.529 
0.803 
0.8741 
0.8794 
0.8795 
0.8795 
0.8795 
0.3754 
0.4761 
0.7229 
0.8693 
0.879 
0.8795 
0.8795 
0.8795 
0.8795 
0.5288 
0.7228 
0.862 
0.8791 
0.8795 
0.8795 
0.8795 
0.8795 
0.8795 
0.8027 
0.8692 
0.8791 
0.8795 
0.8795 
0.8795 
0.8795 
0.8795 
0.8795 
0.874 
0.879 
0.8795 
0.8795 
0.8795 
0.8795 
0.8795 
0.8795 
0.8795 
0.8794 
0.8795 
0.8795 
0.8795 
0.8795 
0.8795 
0.8795 
0.8795 
0.8795 
0.8795 
0.8795 
0.8795 
0.8795 
0.8795 
0.8795 
0.8795 
0.8795 
0.8795 
0.8795 
0.8795 
0.8795 
0.8795 
0.8795 
0.8795 
0.8795 
0.8791 
0.8782 
0.8795 
0.8795 
0.8795 
0.8795 
0.8795 
0.8795 
0.8795 
0.8782 
0.8762 
SCALARS So_DAY=1095 double 1
LOOKUP_TABLE default
0.2984 
0.3193 
0.3858 
0.5069 
0.6691 
0.8614 
0.8793 
0.8798 
0.8798 
0.3193 
0.3668 
0.4419 
0.6274 
0.8113 
0.8765 
0.8797 
0.8798 
0.8798 
0.3858 
0.4418 
0.5789 
0.8123 
0.8723 
0.8796 
0.8798 
0.8798 
0.8798 
0.5066 
0.627 
0.8122 
0.8748 
0.8794 
0.8798 
0.8798 
0.8798 
0.8798 
0.6682 
0.8109 
0.8723 
0.8794 
0.8798 
0.8798 
0.8798 
0.8798 
0.8798 
0.8624 
0.8767 
0.8796 
0.8798 
0.8798 
0.8798 
0.8798 
0.8798 
0.8798 
0.8794 
0.8797 
0.8798 
0.8798 
0.8798 
0.8798 
0.8798 
0.8798 
0.8798 
0.8798 
0.8798 
0.8798 
0.8798 
0.8798 
0.8798 
0.8798 
0.8794 
0.8785 
0.8798 
0.8798 
0.8798 
0.8798 
0.8798 
0.8798 
0.8798 
0.8785 
0.8765 
SCALARS So_DAY=1460 double 1
LOOKUP_TABLE default
0.2935 
0.3033 
0.3429 
0.4087 
0.4568 
0.6865 
0.8626 
0.8796 
0.8801 
0.3033 
0.3292 
0.3787 
0.4529 
0.5302 
0.7898 
0.8752 
0.88 
0.8801 
0.3428 
0.3786 
0.4312 
0.5559 
0.7101 
0.8646 
0.8796 
0.8801 
0.8801 
0.4085 
0.4526 
0.5557 
0.764 
0.8574 
0.8789 
0.8801 
0.8801 
0.8801 
0.4562 
0.5296 
0.7096 
0.8574 
0.8773 
0.88 
0.8801 
0.8801 
0.8801 
0.6956 
0.7951 
0.8657 
0.879 
0.88 
0.8801 
0.8801 
0.8801 
0.8801 
0.8647 
0.8759 
0.8796 
0.8801 
0.8801 
0.8801 
0.8801 
0.8801 
0.8801 
0.8797 
0.88 
0.8801 
0.8801 
0.8801 
0.8801 
0.8801 
0.8797 
0.8788 
0.8801 
0.8801 
0.8801 
0.8801 
0.8801 
0.8801 
0.8801 
0.8788 
0.8768 
SCALARS So_DAY=1825 double 1
LOOKUP_TABLE default
0.2931 
0.3009 
0.3253 
0.3744 
0.3977 
0.5168 
0.7565 
0.8722 
0.88 
0.3009 
0.315 
0.3513 
0.3977 
0.4277 
0.5822 
0.8182 
0.8773 
0.8801 
0.3252 
0.3512 
0.3894 
0.4433 
0.4926 
0.7126 
0.8642 
0.8796 
0.8801 
0.3742 
0.3976 
0.4433 
0.5414 
0.6505 
0.8436 
0.8781 
0.8801 
0.8801 
0.3975 
0.4273 
0.4925 
0.6507 
0.798 
0.873 
0.8798 
0.8801 
0.8801 
0.5264 
0.594 
0.724 
0.8469 
0.8737 
0.8797 
0.8801 
0.8801 
0.8801 
0.7709 
0.8268 
0.8666 
0.8784 
0.8798 
0.8801 
0.8801 
0.8801 
0.8801 
0.8738 
0.8779 
0.8797 
0.8801 
0.8801 
0.8801 
0.8801 
0.8797 
0.8788 
0.88 
0.8801 
0.8801 
0.8801 
0.8801 
0.8801 
0.8801 
0.8788 
0.8768 
SCALARS So_DAY=2190 double 1
LOOKUP_TABLE default
0.2928 
0.3001 
0.3162 
0.3532 
0.37 
0.4427 
0.6032 
0.8304 
0.8786 
0.3001 
0.3085 
0.3344 
0.3695 
0.393 
0.4746 
0.6688 
0.8555 
0.8795 
0.3161 
0.3344 
0.3658 
0.4008 
0.4232 
0.5372 
0.7697 
0.8727 
0.88 
0.353 
0.3693 
0.4007 
0.4502 
0.4882 
0.6676 
0.8501 
0.8788 
0.8801 
0.3697 
0.3928 
0.4229 
0.4881 
0.5477 
0.7788 
0.8713 
0.8798 
0.8801 
0.4494 
0.4829 
0.5491 
0.6825 
0.7886 
0.8683 
0.8793 
0.8801 
0.8801 
0.623 
0.6901 
0.7859 
0.8555 
0.873 
0.8794 
0.8801 
0.8801 
0.8801 
0.8405 
0.8609 
0.8744 
0.8791 
0.8799 
0.8801 
0.8801 
0.8797 
0.8788 
0.8791 
0.8797 
0.8801 
0.8801 
0.8801 
0.8801 
0.8801 
0.8788 
0.8768 
SCALARS So_DAY=2555 double 1
LOOKUP_TABLE default
0.2925 
0.2998 
0.3114 
0.3391 
0.35 
0.4061 
0.5067 
0.7299 
0.8704 
0.2998 
0.3055 
0.324 
0.3494 
0.3709 
0.4254 
0.5431 
0.7787 
0.8753 
0.3113 
0.324 
0.349 
0.3772 
0.3955 
0.4585 
0.6117 
0.8324 
0.8787 
0.339 
0.3492 
0.377 
0.41 
0.429 
0.5207 
0.7285 
0.8663 
0.8798 
0.3498 
0.3706 
0.3953 
0.4288 
0.4532 
0.5729 
0.8018 
0.8748 
0.8801 
0.4106 
0.4311 
0.4662 
0.5323 
0.5889 
0.7743 
0.867 
0.8793 
0.8801 
0.5217 
0.5615 
0.6357 
0.7515 
0.8162 
0.8683 
0.8787 
0.8801 
0.8801 
0.7534 
0.798 
0.8437 
0.8699 
0.8763 
0.8795 
0.8801 
0.8797 
0.8789 
0.8731 
0.8768 
0.8791 
0.8799 
0.8801 
0.8801 
0.8801 
0.8789 
0.8769 
SCALARS So_DAY=2920 double 1
LOOKUP_TABLE default
0.2948 
0.3014 
0.3115 
0.3328 
0.3381 
0.3866 
0.4549 
0.6171 
0.8409 
0.3014 
0.3066 
0.3206 
0.3374 
0.3559 
0.4011 
0.4758 
0.6586 
0.856 
0.3114 
0.3205 
0.3401 
0.3613 
0.379 
0.4211 
0.5103 
0.7234 
0.8694 
0.3326 
0.3373 
0.3612 
0.391 
0.4034 
0.4544 
0.5719 
0.7994 
0.8767 
0.3379 
0.3557 
0.3788 
0.4033 
0.4152 
0.4747 
0.619 
0.8349 
0.8785 
0.3902 
0.4048 
0.4263 
0.4618 
0.4838 
0.5857 
0.779 
0.8696 
0.8796 
0.4657 
0.4886 
0.5269 
0.5954 
0.6496 
0.7884 
0.8618 
0.8779 
0.8799 
0.6434 
0.6872 
0.7519 
0.8188 
0.8477 
0.8716 
0.8781 
0.8792 
0.8787 
0.8512 
0.863 
0.8728 
0.8778 
0.879 
0.8797 
0.8799 
0.8787 
0.8767 
SCALARS So_DAY=3285 double 1
LOOKUP_TABLE default
0.2973 
0.3021 
0.3121 
0.3291 
0.3301 
0.3718 
0.4249 
0.5392 
0.7822 
0.3021 
0.3077 
0.3192 
0.3294 
0.3445 
0.3854 
0.4382 
0.5633 
0.8057 
0.312 
0.3192 
0.3344 
0.3493 
0.3652 
0.4012 
0.4586 
0.6024 
0.8339 
0.329 
0.3293 
0.3492 
0.3761 
0.3893 
0.421 
0.4898 
0.666 
0.8585 
0.33 
0.3443 
0.365 
0.3892 
0.3991 
0.432 
0.5064 
0.7077 
0.8679 
0.375 
0.3885 
0.4044 
0.4259 
0.438 
0.4886 
0.6016 
0.8087 
0.8762 
0.4327 
0.4473 
0.4699 
0.5047 
0.5246 
0.6152 
0.7694 
0.8605 
0.8785 
0.5598 
0.5872 
0.6324 
0.7011 
0.7439 
0.8212 
0.8624 
0.8754 
0.878 
0.8027 
0.8239 
0.8477 
0.866 
0.8721 
0.8772 
0.8787 
0.878 
0.8763 
SCALARS So_DAY=3650 double 1
LOOKUP_TABLE default
0.3 
0.3024 
0.3127 
0.3272 
0.325 
0.3604 
0.4064 
0.4909 
0.7127 
0.3024 
0.3085 
0.319 
0.3242 
0.3363 
0.3726 
0.4157 
0.5048 
0.7342 
0.3126 
0.319 
0.3311 
0.3403 
0.354 
0.3879 
0.4286 
0.525 
0.7629 
0.3271 
0.3241 
0.3402 
0.3639 
0.3765 
0.4033 
0.4469 
0.5554 
0.7969 
0.3249 
0.3361 
0.3538 
0.3764 
0.3873 
0.4101 
0.4558 
0.5705 
0.815 
0.3632 
0.3754 
0.3906 
0.4063 
0.4138 
0.4425 
0.4994 
0.6522 
0.8517 
0.4121 
0.4222 
0.4366 
0.4572 
0.4673 
0.507 
0.5907 
0.769 
0.8687 
0.506 
0.5221 
0.5463 
0.5829 
0.6028 
0.6795 
0.7788 
0.8477 
0.8733 
0.7378 
0.76 
0.7886 
0.8202 
0.8365 
0.8598 
0.8706 
0.8736 
0.8744 
SCALARS So_DAY=4015 double 1
LOOKUP_TABLE default
0.3012 
0.3031 
0.3132 
0.3263 
0.3219 
0.3517 
0.3943 
0.4602 
0.653 
0.3031 
0.3091 
0.3193 
0.3211 
0.3305 
0.3623 
0.4015 
0.469 
0.667 
0.3132 
0.3192 
0.3294 
0.3339 
0.3453 
0.3764 
0.4105 
0.4802 
0.6844 
0.3262 
0.321 
0.3338 
0.3539 
0.3653 
0.3917 
0.4217 
0.4941 
0.7061 
0.3218 
0.3304 
0.3451 
0.3653 
0.3756 
0.3978 
0.4268 
0.499 
0.7144 
0.3542 
0.3648 
0.3789 
0.3941 
0.4 
0.4169 
0.4507 
0.5294 
0.7577 
0.3988 
0.4062 
0.4161 
0.4287 
0.4345 
0.4558 
0.4925 
0.585 
0.802 
0.4716 
0.4816 
0.4947 
0.5116 
0.5185 
0.5476 
0.5983 
0.7113 
0.8378 
0.6763 
0.6923 
0.7128 
0.7385 
0.7494 
0.7827 
0.8153 
0.8418 
0.8591 
SCALARS So_DAY=4380 double 1
LOOKUP_TABLE default
0.3013 
0.3036 
0.3139 
0.3261 
0.3203 
0.3452 
0.3846 
0.4397 
0.6067 
0.3036 
0.3098 
0.3198 
0.3194 
0.3268 
0.3542 
0.3915 
0.4455 
0.6151 
0.3138 
0.3197 
0.3287 
0.3295 
0.3388 
0.3666 
0.3991 
0.4522 
0.6237 
0.326 
0.3193 
0.3294 
0.3461 
0.356 
0.381 
0.4067 
0.4594 
0.6315 
0.3202 
0.3266 
0.3386 
0.3559 
0.3652 
0.3875 
0.4099 
0.4612 
0.6301 
0.3473 
0.3564 
0.369 
0.3834 
0.3897 
0.4032 
0.4231 
0.4726 
0.6406 
0.3889 
0.3956 
0.403 
0.4114 
0.415 
0.4265 
0.4457 
0.4891 
0.6488 
0.4485 
0.4551 
0.463 
0.4717 
0.4739 
0.4831 
0.4959 
0.5262 
0.6615 
0.6272 
0.6374 
0.6483 
0.6594 
0.6597 
0.6678 
0.6711 
0.6746 
0.7276 
SCALARS So_DAY=4745 double 1
LOOKUP_TABLE default
0.3014 
0.3039 
0.3144 
0.3262 
0.3196 
0.3404 
0.3765 
0.4253 
0.5711 
0.3039 
0.3104 
0.3204 
0.3186 
0.3246 
0.3478 
0.3829 
0.4294 
0.5761 
0.3144 
0.3203 
0.3287 
0.3268 
0.3342 
0.3586 
0.3903 
0.4336 
0.5798 
0.3261 
0.3186 
0.3267 
0.3403 
0.3486 
0.3716 
0.3973 
0.4372 
0.5805 
0.3195 
0.3245 
0.3341 
0.3486 
0.3566 
0.3776 
0.3996 
0.4375 
0.5771 
0.3423 
0.3499 
0.3608 
0.3739 
0.3798 
0.394 
0.4076 
0.4418 
0.5711 
0.3806 
0.3869 
0.3941 
0.4007 
0.403 
0.41 
0.4203 
0.4471 
0.5555 
0.4326 
0.4371 
0.4419 
0.4464 
0.447 
0.4496 
0.452 
0.4632 
0.5341 
0.5894 
0.5954 
0.6005 
0.6032 
0.6004 
0.5925 
0.5731 
0.5453 
0.5476 
SCALARS So_DAY=5110 double 1
LOOKUP_TABLE default
0.3012 
0.3037 
0.3145 
0.3262 
0.3191 
0.3366 
0.3693 
0.414 
0.5414 
0.3037 
0.3104 
0.3205 
0.3182 
0.3231 
0.3427 
0.375 
0.4171 
0.5443 
0.3144 
0.3205 
0.3286 
0.3249 
0.3309 
0.3518 
0.3819 
0.4201 
0.5456 
0.3261 
0.3181 
0.3249 
0.3358 
0.3427 
0.3632 
0.3888 
0.4219 
0.5424 
0.3191 
0.323 
0.3308 
0.3427 
0.3495 
0.3686 
0.391 
0.421 
0.5372 
0.3383 
0.3446 
0.3539 
0.3655 
0.3709 
0.3845 
0.3979 
0.4214 
0.5259 
0.3733 
0.379 
0.3858 
0.3925 
0.3945 
0.3993 
0.4046 
0.4218 
0.5063 
0.4204 
0.4238 
0.4271 
0.4292 
0.4282 
0.4272 
0.4254 
0.4309 
0.4856 
0.5586 
0.5623 
0.5644 
0.562 
0.5567 
0.543 
0.5196 
0.4937 
0.4952 
SCALARS So_DAY=5475 double 1
LOOKUP_TABLE default
0.3005 
0.3015 
0.3112 
0.3216 
0.3124 
0.3283 
0.3561 
0.3962 
0.5042 
0.3015 
0.3074 
0.3168 
0.3125 
0.3176 
0.3331 
0.3608 
0.3983 
0.5055 
0.3111 
0.3168 
0.3239 
0.318 
0.3237 
0.3403 
0.3667 
0.4003 
0.5049 
0.3216 
0.3125 
0.3179 
0.3275 
0.3333 
0.3498 
0.373 
0.4015 
0.501 
0.3124 
0.3176 
0.3237 
0.3333 
0.339 
0.3549 
0.3762 
0.402 
0.4976 
0.3297 
0.3347 
0.3422 
0.3517 
0.3568 
0.3685 
0.3832 
0.4019 
0.4869 
0.3598 
0.3646 
0.3705 
0.3766 
0.3796 
0.3847 
0.3899 
0.4035 
0.471 
0.4016 
0.404 
0.4061 
0.4073 
0.4076 
0.4062 
0.4062 
0.4098 
0.4525 
0.5197 
0.5215 
0.5213 
0.5174 
0.5138 
0.5007 
0.4819 
0.4599 
0.4592 
SCALARS Sw_DAY=0 double 1
LOOKUP_TABLE default
0.12 
0.12 
0.12 
0.12 
0.12 
0.12 
0.12 
0.12 
0.12 
0.12 
0.12 
0.12 
0.12 
0.12 
0.12 
0.12 
0.12 
0.12 
0.12 
0.12 
0.12 
0.12 
0.12 
0.12 
0.12 
0.12 
0.12 
0.12 
0.12 
0.12 
0.12 
0.12 
0.12 
0.12 
0.12 
0.12 
0.12 
0.12 
0.12 
0.12 
0.12 
0.12 
0.12 
0.12 
0.12 
0.12 
0.12 
0.12 
0.12 
0.12 
0.12 
0.12 
0.12 
0.12 
0.12 
0.12 
0.12 
0.12 
0.12 
0.12 
0.12 
0.12 
0.12 
0.12 
0.12 
0.12 
0.12 
0.12 
0.12 
0.12 
0.12 
0.12 
0.12 
0.12 
0.12 
0.12 
0.12 
0.12 
0.12 
0.12 
0.12 
SCALARS Sw_DAY=365 double 1
LOOKUP_TABLE default
0.121 
0.121 
0.121 
0.121 
0.121 
0.121 
0.121 
0.121 
0.121 
0.121 
0.121 
0.121 
0.121 
0.121 
0.121 
0.121 
0.121 
0.121 
0.121 
0.121 
0.121 
0.121 
0.121 
0.121 
0.121 
0.121 
0.121 
0.121 
0.121 
0.121 
0.121 
0.121 
0.121 
0.121 
0.121 
0.121 
0.121 
0.121 
0.121 
0.121 
0.121 
0.121 
0.121 
0.121 
0.121 
0.121 
0.121 
0.121 
0.121 
0.121 
0.121 
0.121 
0.121 
0.1211 
0.121 
0.121 
0.121 
0.121 
0.121 
0.121 
0.1211 
0.1211 
0.1211 
0.121 
0.121 
0.121 
0.121 
0.121 
0.121 
0.1211 
0.1211 
0.1211 
0.121 
0.121 
0.121 
0.121 
0.121 
0.1211 
0.1211 
0.1211 
0.1211 
SCALARS Sw_DAY=730 double 1
LOOKUP_TABLE default
0.6916 
0.6246 
0.4694 
0.194 
0.1259 
0.1206 
0.1205 
0.1205 
0.1205 
0.6246 
0.523 
0.2748 
0.1307 
0.121 
0.1205 
0.1205 
0.1205 
0.1205 
0.4696 
0.275 
0.1349 
0.1209 
0.1205 
0.1205 
0.1205 
0.1205 
0.1205 
0.1943 
0.1308 
0.1209 
0.1205 
0.1205 
0.1205 
0.1205 
0.1205 
0.1205 
0.126 
0.121 
0.1205 
0.1205 
0.1205 
0.1205 
0.1205 
0.1205 
0.1205 
0.1206 
0.1205 
0.1205 
0.1205 
0.1205 
0.1205 
0.1205 
0.1205 
0.1205 
0.1205 
0.1205 
0.1205 
0.1205 
0.1205 
0.1205 
0.1205 
0.1205 
0.1205 
0.1205 
0.1205 
0.1205 
0.1205 
0.1205 
0.1205 
0.1205 
0.1205 
0.1205 
0.1205 
0.1205 
0.1205 
0.1205 
0.1205 
0.1205 
0.1205 
0.1205 
0.1205 
SCALARS Sw_DAY=1095 double 1
LOOKUP_TABLE default
0.7016 
0.6807 
0.6126 
0.4901 
0.3309 
0.1386 
0.1207 
0.1202 
0.1202 
0.6807 
0.6323 
0.5558 
0.3726 
0.1887 
0.1235 
0.1203 
0.1202 
0.1202 
0.6127 
0.5559 
0.418 
0.1877 
0.1277 
0.1204 
0.1202 
0.1202 
0.1202 
0.4904 
0.373 
0.1878 
0.1252 
0.1206 
0.1202 
0.1202 
0.1202 
0.1202 
0.3318 
0.1891 
0.1277 
0.1206 
0.1202 
0.1202 
0.1202 
0.1202 
0.1202 
0.1376 
0.1233 
0.1204 
0.1202 
0.1202 
0.1202 
0.1202 
0.1202 
0.1202 
0.1206 
0.1203 
0.1202 
0.1202 
0.1202 
0.1202 
0.1202 
0.1202 
0.1202 
0.1202 
0.1202 
0.1202 
0.1202 
0.1202 
0.1202 
0.1202 
0.1202 
0.1202 
0.1202 
0.1202 
0.1202 
0.1202 
0.1202 
0.1202 
0.1202 
0.1202 
0.1202 
SCALARS Sw_DAY=1460 double 1
LOOKUP_TABLE default
0.7065 
0.6967 
0.6556 
0.5883 
0.5432 
0.3135 
0.1374 
0.1204 
0.1199 
0.6967 
0.67 
0.6191 
0.5471 
0.4698 
0.2102 
0.1248 
0.12 
0.1199 
0.6556 
0.6191 
0.5657 
0.4441 
0.2899 
0.1354 
0.1204 
0.1199 
0.1199 
0.5886 
0.5474 
0.4443 
0.236 
0.1426 
0.1211 
0.1199 
0.1199 
0.1199 
0.5438 
0.4704 
0.2904 
0.1426 
0.1227 
0.12 
0.1199 
0.1199 
0.1199 
0.3044 
0.2049 
0.1343 
0.121 
0.12 
0.1199 
0.1199 