# vtk DataFile Version 3.0
MOAB 5.4.1
ASCII
DATASET UNSTRUCTURED_GRID
POINTS 200 double
0 0 0
160 0 0
320 0 0
480 0 0
640 0 0
720 0 0
880 0 0
1040 0 0
1200 0 0
1360 0 0
0 160 0
160 160 0
320 160 0
480 160 0
640 160 0
720 160 0
880 160 0
1040 160 0
1200 160 0
1360 160 0
0 320 0
160 320 0
320 320 0
480 320 0
640 320 0
720 320 0
880 320 0
1040 320 0
1200 320 0
1360 320 0
0 480 0
160 480 0
320 480 0
480 480 0
640 480 0
720 480 0
880 480 0
1040 480 0
1200 480 0
1360 480 0
0 640 0
160 640 0
320 640 0
480 640 0
640 640 0
720 640 0
880 640 0
1040 640 0
1200 640 0
1360 640 0
0 720 0
160 720 0
320 720 0
480 720 0
640 720 0
720 720 0
880 720 0
1040 720 0
1200 720 0
1360 720 0
0 880 0
160 880 0
320 880 0
480 880 0
640 880 0
720 880 0
880 880 0
1040 880 0
1200 880 0
1360 880 0
0 1040 0
160 1040 0
320 1040 0
480 1040 0
640 1040 0
720 1040 0
880 1040 0
1040 1040 0
1200 1040 0
1360 1040 0
0 1200 0
160 1200 0
320 1200 0
480 1200 0
640 1200 0
720 1200 0
880 1200 0
1040 1200 0
1200 1200 0
1360 1200 0
0 1360 0
160 1360 0
320 1360 0
480 1360 0
640 1360 0
720 1360 0
880 1360 0
1040 1360 0
1200 1360 0
1360 1360 0
0 0 -30
160 0 -30
320 0 -30
480 0 -30
640 0 -30
720 0 -30
880 0 -30
1040 0 -30
1200 0 -30
1360 0 -30
0 160 -30
160 160 -30
320 160 -30
480 160 -30
640 160 -30
720 160 -30
880 160 -30
1040 160 -30
1200 160 -30
1360 160 -30
0 320 -30
160 320 -30
320 320 -30
480 320 -30
640 320 -30
720 320 -30
880 320 -30
1040 320 -30
1200 320 -30
1360 320 -30
0 480 -30
160 480 -30
320 480 -30
480 480 -30
640 480 -30
720 480 -30
880 480 -30
1040 480 -30
1200 480 -30
1360 480 -30
0 640 -30
160 640 -30
320 640 -30
480 640 -30
640 640 -30
720 640 -30
880 640 -30
1040 640 -30
1200 640 -30
1360 640 -30
0 720 -30
160 720 -30
320 720 -30
480 720 -30
640 720 -30
720 720 -30
880 720 -30
1040 720 -30
1200 720 -30
1360 720 -30
0 880 -30
160 880 -30
320 880 -30
480 880 -30
640 880 -30
720 880 -30
880 880 -30
1040 880 -30
1200 880 -30
1360 880 -30
0 1040 -30
160 1040 -30
320 1040 -30
480 1040 -30
640 1040 -30
720 1040 -30
880 1040 -30
1040 1040 -30
1200 1040 -30
1360 1040 -30
0 1200 -30
160 1200 -30
320 1200 -30
480 1200 -30
640 1200 -30
720 1200 -30
880 1200 -30
1040 1200 -30
1200 1200 -30
1360 1200 -30
0 1360 -30
160 1360 -30
320 1360 -30
480 1360 -30
640 1360 -30
720 1360 -30
880 1360 -30
1040 1360 -30
1200 1360 -30
1360 1360 -30
CELLS 81 729
8 0 1 11 10 100 101 111 110
8 10 11 21 20 110 111 121 120
8 20 21 31 30 120 121 131 130
8 30 31 41 40 130 131 141 140
8 40 41 51 50 140 141 151 150
8 50 51 61 60 150 151 161 160
8 60 61 71 70 160 161 171 170
8 70 71 81 80 170 171 181 180
8 80 81 91 90 180 181 191 190
8 1 2 12 11 101 102 112 111
8 11 12 22 21 111 112 122 121
8 21 22 32 31 121 122 132 131
8 31 32 42 41 131 132 142 141
8 41 42 52 51 141 142 152 151
8 51 52 62 61 151 152 162 161
8 61 62 72 71 161 162 172 171
8 71 72 82 81 171 172 182 181
8 81 82 92 91 181 182 192 191
8 2 3 13 12 102 103 113 112
8 12 13 23 22 112 113 123 122
8 22 23 33 32 122 123 133 132
8 32 33 43 42 132 133 143 142
8 42 43 53 52 142 143 153 152
8 52 53 63 62 152 153 163 162
8 62 63 73 72 162 163 173 172
8 72 73 83 82 172 173 183 182
8 82 83 93 92 182 183 193 192
8 3 4 14 13 103 104 114 113
8 13 14 24 23 113 114 124 123
8 23 24 34 33 123 124 134 133
8 33 34 44 43 133 134 144 143
8 43 44 54 53 143 144 154 153
8 53 54 64 63 153 154 164 163
8 63 64 74 73 163 164 174 173
8 73 74 84 83 173 174 184 183
8 83 84 94 93 183 184 194 193
8 4 5 15 14 104 105 115 114
8 14 15 25 24 114 115 125 124
8 24 25 35 34 124 125 135 134
8 34 35 45 44 134 135 145 144
8 44 45 55 54 144 145 155 154
8 54 55 65 64 154 155 165 164
8 64 65 75 74 164 165 175 174
8 74 75 85 84 174 175 185 184
8 84 85 95 94 184 185 195 194
8 5 6 16 15 105 106 116 115
8 15 16 26 25 115 116 126 125
8 25 26 36 35 125 126 136 135
8 35 36 46 45 135 136 146 145
8 45 46 56 55 145 146 156 155
8 55 56 66 65 155 156 166 165
8 65 66 76 75 165 166 176 175
8 75 76 86 85 175 176 186 185
8 85 86 96 95 185 186 196 195
8 6 7 17 16 106 107 117 116
8 16 17 27 26 116 117 127 126
8 26 27 37 36 126 127 137 136
8 36 37 47 46 136 137 147 146
8 46 47 57 56 146 147 157 156
8 56 57 67 66 156 157 167 166
8 66 67 77 76 166 167 177 176
8 76 77 87 86 176 177 187 186
8 86 87 97 96 186 187 197 196
8 7 8 18 17 107 108 118 117
8 17 18 28 27 117 118 128 127
8 27 28 38 37 127 128 138 137
8 37 38 48 47 137 138 148 147
8 47 48 58 57 147 148 158 157
8 57 58 68 67 157 158 168 167
8 67 68 78 77 167 168 178 177
8 77 78 88 87 177 178 188 187
8 87 88 98 97 187 188 198 197
8 8 9 19 18 108 109 119 118
8 18 19 29 28 118 119 129 128
8 28 29 39 38 128 129 139 138
8 38 39 49 48 138 139 149 148
8 48 49 59 58 148 149 159 158
8 58 59 69 68 158 159 169 168
8 68 69 79 78 168 169 179 178
8 78 79 89 88 178 179 189 188
8 88 89 99 98 188 189 199 198
CELL_TYPES 81
12
12
12
12
12
12
12
12
12
12
12
12
12
12
12
12
12
12
12
12
12
12
12
12
12
12
12
12
12
12
12
12
12
12
12
12
12
12
12
12
12
12
12
12
12
12
12
12
12
12
12
12
12
12
12
12
12
12
12
12
12
12
12
12
12
12
12
12
12
12
12
12
12
12
12
12
12
12
12
12
12
POINT_DATA 200
SCALARS GLOBAL_ID int 1
LOOKUP_TABLE default
-1 
-1 
-1 
-1 
-1 
-1 
-1 
-1 
-1 
-1 
-1 
-1 
-1 
-1 
-1 
-1 
-1 
-1 
-1 
-1 
-1 
-1 
-1 
-1 
-1 
-1 
-1 
-1 
-1 
-1 
-1 
-1 
-1 
-1 
-1 
-1 
-1 
-1 
-1 
-1 
-1 
-1 
-1 
-1 
-1 
-1 
-1 
-1 
-1 
-1 
-1 
-1 
-1 
-1 
-1 
-1 
-1 
-1 
-1 
-1 
-1 
-1 
-1 
-1 
-1 
-1 
-1 
-1 
-1 
-1 
-1 
-1 
-1 
-1 
-1 
-1 
-1 
-1 
-1 
-1 
-1 
-1 
-1 
-1 
-1 
-1 
-1 
-1 
-1 
-1 
-1 
-1 
-1 
-1 
-1 
-1 
-1 
-1 
-1 
-1 
-1 
-1 
-1 
-1 
-1 
-1 
-1 
-1 
-1 
-1 
-1 
-1 
-1 
-1 
-1 
-1 
-1 
-1 
-1 
-1 
-1 
-1 
-1 
-1 
-1 
-1 
-1 
-1 
-1 
-1 
-1 
-1 
-1 
-1 
-1 
-1 
-1 
-1 
-1 
-1 
-1 
-1 
-1 
-1 
-1 
-1 
-1 
-1 
-1 
-1 
-1 
-1 
-1 
-1 
-1 
-1 
-1 
-1 
-1 
-1 
-1 
-1 
-1 
-1 
-1 
-1 
-1 
-1 
-1 
-1 
-1 
-1 
-1 
-1 
-1 
-1 
-1 
-1 
-1 
-1 
-1 
-1 
-1 
-1 
-1 
-1 
-1 
-1 
-1 
-1 
-1 
-1 
-1 
-1 
-1 
-1 
-1 
-1 
-1 
-1 
CELL_DATA 81
SCALARS GLOBAL_ID int 1
LOOKUP_TABLE default
-1 
-1 
-1 
-1 
-1 
-1 
-1 
-1 
-1 
-1 
-1 
-1 
-1 
-1 
-1 
-1 
-1 
-1 
-1 
-1 
-1 
-1 
-1 
-1 
-1 
-1 
-1 
-1 
-1 
-1 
-1 
-1 
-1 
-1 
-1 
-1 
-1 
-1 
-1 
-1 
-1 
-1 
-1 
-1 
-1 
-1 
-1 
-1 
-1 
-1 
-1 
-1 
-1 
-1 
-1 
-1 
-1 
-1 
-1 
-1 
-1 
-1 
-1 
-1 
-1 
-1 
-1 
-1 
-1 
-1 
-1 
-1 
-1 
-1 
-1 
-1 
-1 
-1 
-1 
-1 
-1 
SCALARS id int 1
LOOKUP_TABLE default
0 
1 
2 
3 
4 
5 
6 
7 
8 
9 
10 
11 
12 
13 
14 
15 
16 
17 
18 
19 
20 
21 
22 
23 
24 
25 
26 
27 
28 
29 
30 
31 
32 
33 
34 
35 
36 
37 
38 
39 
40 
41 
42 
43 
44 
45 
46 
47 
48 
49 
50 
51 
52 
53 
54 
55 
56 
57 
58 
59 
60 
61 
62 
63 
64 
65 
66 
67 
68 
69 
70 
71 
72 
73 
74 
75 
76 
77 
78 
79 
80 
SCALARS permeability double 1
LOOKUP_TABLE default
100 
100 
100 
100 
100 
100 
100 
100 
100 
100 
100 
100 
100 
100 
100 
100 
100 
100 
100 
100 
100 
100 
100 
100 
100 
100 
100 
100 
100 
100 
100 
100 
100 
100 
100 
100 
100 
100 
100 
100 
100 
100 
100 
100 
100 
100 
100 
100 
100 
100 
100 
100 
100 
100 
100 
100 
100 
100 
100 
100 
100 
100 
100 
100 
100 
100 
100 
100 
100 
100 
100 
100 
100 
100 
100 
100 
100 
100 
100 
100 
100 
SCALARS porosity double 1
LOOKUP_TABLE default
0.28 
0.28 
0.28 
0.28 
0.28 
0.28 
0.28 
0.28 
0.28 
0.28 
0.28 
0.28 
0.28 
0.28 
0.28 
0.28 
0.28 
0.28 
0.28 
0.28 
0.28 
0.28 
0.28 
0.28 
0.28 
0.28 
0.28 
0.28 
0.28 
0.28 
0.28 
0.28 
0.28 
0.28 
0.28 
0.28 
0.28 
0.28 
0.28 
0.28 
0.28 
0.28 
0.28 
0.28 
0.28 
0.3 
0.3 
0.3 
0.3 
0.3 
0.3 
0.3 
0.3 
0.3 
0.3 
0.3 
0.3 
0.3 
0.3 
0.3 
0.3 
0.3 
0.3 
0.3 
0.3 
0.3 
0.3 
0.3 
0.3 
0.3 
0.3 
0.3 
0.3 
0.3 
0.3 
0.3 
0.3 
0.3 
0.3 
0.3 
0.3 
SCALARS P_DAY=0 double 1
LOOKUP_TABLE default
5382 
5382 
5382 
5382 
5382 
5382 
5382 
5382 
5382 
5382 
5382 
5382 
5382 
5382 
5382 
5382 
5382 
5382 
5382 
5382 
5382 
5382 
5382 
5382 
5382 
5382 
5382 
5382 
5382 
5382 
5382 
5382 
5382 
5382 
5382 
5382 
5382 
5382 
5382 
5382 
5382 
5382 
5382 
5382 
5382 
5382 
5382 
5382 
5382 
5382 
5382 
5382 
5382 
5382 
5382 
5382 
5382 
5382 
5382 
5382 
5382 
5382 
5382 
5382 
5382 
5382 
5382 
5382 
5382 
5382 
5382 
5382 
5382 
5382 
5382 
5382 
5382 
5382 
5382 
5382 
5382 
SCALARS P_DAY=365 double 1
LOOKUP_TABLE default
2038 
2037 
2035 
2034 
2034 
2034 
2035 
2037 
2038 
2037 
2036 
2033 
2031 
2030 
2031 
2033 
2036 
2037 
2035 
2033 
2029 
2024 
2023 
2024 
2029 
2033 
2035 
2034 
2031 
2025 
2013 
2004 
2013 
2025 
2031 
2034 
2034 
2031 
2023 
2004 
1952 
2004 
2023 
2031 
2034 
2035 
2032 
2025 
2014 
2005 
2014 
2025 
2032 
2035 
2036 
2034 
2030 
2025 
2023 
2025 
2030 
2034 
2036 
2038 
2037 
2034 
2032 
2031 
2032 
2034 
2037 
2038 
2039 
2038 
2036 
2035 
2035 
2035 
2036 
2038 
2039 
SCALARS P_DAY=730 double 1
LOOKUP_TABLE default
2754 
2724 
2714 
2712 
2711 
2712 
2714 
2724 
2754 
2724 
2716 
2713 
2710 
2710 
2710 
2713 
2716 
2724 
2714 
2712 
2710 
2708 
2708 
2708 
2710 
2712 
2714 
2711 
2710 
2708 
2706 
2704 
2706 
2708 
2710 
2711 
2711 
2710 
2708 
2704 
2696 
2704 
2708 
2710 
2711 
2711 
2710 
2708 
2705 
2704 
2705 
2708 
2710 
2711 
2714 
2712 
2710 
2708 
2707 
2708 
2710 
2712 
2714 
2723 
2716 
2712 
2710 
2709 
2710 
2712 
2716 
2723 
2753 
2723 
2714 
2711 
2711 
2711 
2714 
2723 
2753 
SCALARS P_DAY=1095 double 1
LOOKUP_TABLE default
3937 
3911 
3894 
3889 
3889 
3889 
3894 
3911 
3937 
3911 
3898 
3891 
3888 
3887 
3888 
3891 
3898 
3911 
3894 
3890 
3887 
3884 
3883 
3884 
3887 
3890 
3894 
3889 
3887 
3884 
3879 
3876 
3879 
3884 
3887 
3889 
3889 
3887 
3883 
3876 
3857 
3876 
3883 
3887 
3889 
3889 
3887 
3884 
3879 
3876 
3879 
3884 
3887 
3889 
3893 
3890 
3887 
3884 
3883 
3884 
3887 
3890 
3893 
3911 
3897 
3890 
3887 
3887 
3887 
3890 
3897 
3911 
3936 
3911 
3893 
3889 
3889 
3889 
3893 
3911 
3936 
SCALARS P_DAY=1460 double 1
LOOKUP_TABLE default
5058 
5034 
5017 
5009 
5008 
5009 
5017 
5034 
5058 
5034 
5022 
5010 
5006 
5006 
5006 
5010 
5022 
5034 
5017 
5010 
5005 
5002 
5001 
5002 
5005 
5010 
5017 
5008 
5006 
5002 
4996 
4993 
4996 
5002 
5006 
5008 
5008 
5005 
5001 
4992 
4971 
4992 
5001 
5005 
5008 
5008 
5006 
5002 
4996 
4992 
4996 
5002 
5006 
5008 
5016 
5009 
5005 
5002 
5001 
5002 
5005 
5009 
5016 
5033 
5021 
5009 
5006 
5005 
5006 
5009 
5021 
5033 
5057 
5033 
5015 
5008 
5007 
5008 
5015 
5033 
5057 
SCALARS P_DAY=1825 double 1
LOOKUP_TABLE default
5342 
5319 
5303 
5291 
5291 
5291 
5303 
5319 
5342 
5319 
5308 
5294 
5288 
5287 
5288 
5294 
5308 
5319 
5303 
5294 
5286 
5282 
5281 
5282 
5286 
5294 
5303 
5291 
5288 
5282 
5274 
5268 
5274 
5282 
5288 
5291 
5290 
5287 
5280 
5268 
5234 
5268 
5280 
5287 
5290 
5291 
5288 
5282 
5274 
5268 
5274 
5282 
5288 
5291 
5302 
5293 
5286 
5282 
5280 
5282 
5286 
5293 
5302 
5319 
5307 
5293 
5287 
5287 
5287 
5293 
5307 
5319 
5342 
5319 
5302 
5291 
5290 
5291 
5302 
5319 
5342 
SCALARS P_DAY=2190 double 1
LOOKUP_TABLE default
5601 
5578 
5563 
5551 
5549 
5551 
5563 
5578 
5601 
5578 
5567 
5555 
5545 
5545 
5545 
5555 
5567 
5578 
5562 
5555 
5544 
5538 
5537 
5538 
5544 
5555 
5562 
5551 
5545 
5538 
5530 
5524 
5530 
5538 
5545 
5551 
5549 
5544 
5537 
5524 
5489 
5524 
5537 
5544 
5549 
5550 
5545 
5538 
5530 
5524 
5530 
5538 
5545 
5550 
5562 
5554 
5543 
5538 
5537 
5538 
5543 
5554 
5562 
5578 
5567 
5554 
5545 
5544 
5545 
5554 
5567 
5578 
5600 
5578 
5562 
5550 
5549 
5550 
5562 
5578 
5600 
SCALARS P_DAY=2555 double 1
LOOKUP_TABLE default
5833 
5811 
5796 
5785 
5783 
5785 
5796 
5811 
5833 
5811 
5801 
5789 
5778 
5777 
5778 
5789 
5801 
5811 
5796 
5789 
5778 
5769 
5768 
5769 
5778 
5789 
5796 
5785 
5778 
5769 
5760 
5754 
5760 
5769 
5778 
5785 
5782 
5777 
5768 
5754 
5718 
5754 
5768 
5777 
5782 
5784 
5778 
5769 
5760 
5754 
5760 
5769 
5778 
5784 
5795 
5788 
5776 
5769 
5768 
5769 
5776 
5788 
5795 
5811 
5800 
5788 
5777 
5777 
5777 
5788 
5800 
5811 
5833 
5810 
5795 
5784 
5782 
5784 
5795 
5810 
5833 
SCALARS P_DAY=2920 double 1
LOOKUP_TABLE default
6041 
6018 
6004 
5994 
5991 
5994 
6004 
6018 
6041 
6018 
6008 
5997 
5986 
5984 
5986 
5997 
6008 
6018 
6004 
5997 
5986 
5975 
5973 
5975 
5986 
5997 
6004 
5993 
5986 
5974 
5963 
5957 
5963 
5974 
5986 
5993 
5991 
5984 
5973 
5957 
5920 
5957 
5973 
5984 
5991 
5993 
5985 
5974 
5964 
5957 
5964 
5974 
5985 
5993 
6003 
5995 
5984 
5974 
5973 
5974 
5984 
5995 
6003 
6017 
6007 
5995 
5985 
5983 
5985 
5995 
6007 
6017 
6040 
6017 
6003 
5992 
5990 
5992 
6003 
6017 
6040 
SCALARS P_DAY=3285 double 1
LOOKUP_TABLE default
5761 
5738 
5724 
5715 
5712 
5715 
5724 
5738 
5761 
5738 
5728 
5717 
5707 
5704 
5707 
5717 
5728 
5738 
5724 
5716 
5704 
5692 
5689 
5692 
5704 
5716 
5724 
5714 
5706 
5691 
5675 
5667 
5675 
5691 
5706 
5714 
5711 
5703 
5688 
5667 
5624 
5667 
5688 
5703 
5711 
5713 
5705 
5690 
5675 
5667 
5675 
5690 
5705 
5713 
5723 
5715 
5703 
5690 
5688 
5690 
5703 
5715 
5723 
5737 
5727 
5715 
5704 
5702 
5704 
5715 
5727 
5737 
5760 
5737 
5723 
5712 
5710 
5712 
5723 
5737 
5760 
SCALARS P_DAY=3650 double 1
LOOKUP_TABLE default
5537 
5514 
5501 
5492 
5490 
5492 
5501 
5514 
5537 
5514 
5504 
5493 
5484 
5481 
5484 
5493 
5504 
5514 
5500 
5493 
5481 
5469 
5464 
5469 
5481 
5493 
5500 
5491 
5483 
5468 
5447 
5437 
5447 
5468 
5483 
5491 
5489 
5480 
5463 
5436 
5385 
5436 
5463 
5480 
5489 
5490 
5482 
5466 
5446 
5436 
5446 
5466 
5482 
5490 
5499 
5491 
5479 
5465 
5461 
5465 
5479 
5491 
5499 
5513 
5503 
5491 
5481 
5478 
5481 
5491 
5503 
5513 
5535 
5513 
5499 
5489 
5487 
5489 
5499 
5513 
5535 
SCALARS P_DAY=4015 double 1
LOOKUP_TABLE default
5404 
5382 
5368 
5360 
5358 
5360 
5368 
5382 
5404 
5382 
5372 
5361 
5352 
5350 
5352 
5361 
5372 
5382 
5368 
5361 
5349 
5337 
5333 
5337 
5349 
5361 
5368 
5359 
5351 
5336 
5314 
5299 
5314 
5336 
5351 
5359 
5357 
5349 
5331 
5297 
5222 
5297 
5331 
5349 
5357 
5359 
5350 
5334 
5310 
5294 
5310 
5334 
5350 
5359 
5367 
5359 
5347 
5333 
5328 
5333 
5347 
5359 
5367 
5380 
5370 
5359 
5349 
5347 
5349 
5359 
5370 
5380 
5403 
5380 
5366 
5357 
5355 
5357 
5366 
5380 
5403 
SCALARS P_DAY=4380 double 1
LOOKUP_TABLE default
5393 
5371 
5357 
5349 
5348 
5349 
5357 
5371 
5393 
5370 
5361 
5350 
5341 
5340 
5341 
5350 
5361 
5370 
5357 
5350 
5338 
5326 
5322 
5326 
5338 
5350 
5357 
5349 
5341 
5326 
5302 
5284 
5302 
5326 
5341 
5349 
5348 
5339 
5322 
5284 
5185 
5284 
5322 
5339 
5348 
5349 
5341 
5326 
5302 
5284 
5302 
5326 
5341 
5349 
5357 
5350 
5338 
5325 
5321 
5325 
5338 
5350 
5357 
5371 
5361 
5350 
5341 
5339 
5341 
5350 
5361 
5371 
5393 
5371 
5357 
5349 
5347 
5349 
5357 
5371 
5393 
SCALARS So_DAY=0 double 1
LOOKUP_TABLE default
0.88 
0.88 
0.88 
0.88 
0.88 
0.88 
0.88 
0.88 
0.88 
0.88 
0.88 
0.88 
0.88 
0.88 
0.88 
0.88 
0.88 
0.88 
0.88 
0.88 
0.88 
0.88 
0.88 
0.88 
0.88 
0.88 
0.88 
0.88 
0.88 
0.88 
0.88 
0.88 
0.88 
0.88 
0.88 
0.88 
0.88 
0.88 
0.88 
0.88 
0.88 
0.88 
0.88 
0.88 
0.88 
0.88 
0.88 
0.88 
0.88 
0.88 
0.88 
0.88 
0.88 
0.88 
0.88 
0.88 
0.88 
0.88 
0.88 
0.88 
0.88 
0.88 
0.88 
0.88 
0.88 
0.88 
0.88 
0.88 
0.88 
0.88 
0.88 
0.88 
0.88 
0.88 
0.88 
0.88 
0.88 
0.88 
0.88 
0.88 
0.88 
SCALARS So_DAY=365 double 1
LOOKUP_TABLE default
0.8198 
0.8197 
0.8195 
0.8193 
0.8193 
0.8193 
0.8195 
0.8197 
0.8198 
0.8197 
0.8196 
0.8193 
0.8191 
0.819 
0.8191 
0.8193 
0.8196 
0.8197 
0.8195 
0.8193 
0.819 
0.8186 
0.8185 
0.8186 
0.819 
0.8193 
0.8195 
0.8194 
0.8191 
0.8186 
0.818 
0.8174 
0.818 
0.8186 
0.8191 
0.8194 
0.8194 
0.819 
0.8185 
0.8175 
0.8241 
0.8175 
0.8185 
0.819 
0.8194 
0.8194 
0.8192 
0.8187 
0.8181 
0.8175 
0.8181 
0.8187 
0.8192 
0.8194 
0.8196 
0.8194 
0.8191 
0.8187 
0.8186 
0.8187 
0.8191 
0.8194 
0.8196 
0.8198 
0.8197 
0.8195 
0.8192 
0.8191 
0.8192 
0.8195 
0.8197 
0.8198 
0.82 
0.8199 
0.8197 
0.8195 
0.8194 
0.8195 
0.8197 
0.8199 
0.82 
SCALARS So_DAY=730 double 1
LOOKUP_TABLE default
0.4265 
0.7251 
0.8729 
0.879 
0.879 
0.879 
0.8729 
0.7251 
0.4265 
0.7249 
0.8698 
0.8789 
0.879 
0.879 
0.879 
0.8789 
0.8698 
0.7249 
0.8729 
0.8789 
0.879 
0.879 
0.879 
0.879 
0.879 
0.8789 
0.8729 
0.879 
0.879 
0.879 
0.879 
0.879 
0.879 
0.879 
0.879 
0.879 
0.879 
0.879 
0.879 
0.879 
0.8244 
0.879 
0.879 
0.879 
0.879 
0.879 
0.879 
0.879 
0.879 
0.879 
0.879 
0.879 
0.879 
0.879 
0.8743 
0.8789 
0.879 
0.879 
0.879 
0.879 
0.879 
0.8789 
0.8743 
0.7434 
0.8719 
0.8789 
0.879 
0.879 
0.879 
0.8789 
0.8719 
0.7434 
0.437 
0.7432 
0.8742 
0.879 
0.879 
0.879 
0.8742 
0.7432 
0.437 
SCALARS So_DAY=1095 double 1
LOOKUP_TABLE default
0.3504 
0.5094 
0.8022 
0.8775 
0.8794 
0.8775 
0.8022 
0.5094 
0.3504 
0.5093 
0.7601 
0.8733 
0.8794 
0.8795 
0.8794 
0.8733 
0.7601 
0.5093 
0.8019 
0.8733 
0.8793 
0.8795 
0.8795 
0.8795 
0.8793 
0.8733 
0.8019 
0.8775 
0.8794 
0.8795 
0.8795 
0.8795 
0.8795 
0.8795 
0.8794 
0.8775 
0.8794 
0.8795 
0.8795 
0.8795 
0.8249 
0.8795 
0.8795 
0.8795 
0.8794 
0.8781 
0.8794 
0.8795 
0.8795 
0.8795 
0.8795 
0.8795 
0.8794 
0.8781 
0.8177 
0.8752 
0.8793 
0.8795 
0.8795 
0.8795 
0.8793 
0.8752 
0.8177 
0.529 
0.7829 
0.8752 
0.8794 
0.8795 
0.8794 
0.8752 
0.7829 
0.529 
0.3565 
0.5288 
0.8173 
0.8781 
0.8794 
0.8781 
0.8173 
0.5288 
0.3565 
SCALARS So_DAY=1460 double 1
LOOKUP_TABLE default
0.3214 
0.4214 
0.6626 
0.8646 
0.8795 
0.8646 
0.6626 
0.4214 
0.3214 
0.4213 
0.5901 
0.8326 
0.8784 
0.8798 
0.8784 
0.8326 
0.5901 
0.4213 
0.6619 
0.8324 
0.877 
0.8798 
0.8799 
0.8798 
0.877 
0.8324 
0.6619 
0.8643 
0.8784 
0.8798 
0.8799 
0.8799 
0.8799 
0.8798 
0.8784 
0.8643 
0.8796 
0.8798 
0.8799 
0.8799 
0.8251 
0.8799 
0.8799 
0.8798 
0.8796 
0.8691 
0.8789 
0.8798 
0.8799 
0.8799 
0.8799 
0.8798 
0.8789 
0.8691 
0.6917 
0.8458 
0.8781 
0.8798 
0.8799 
0.8798 
0.8781 
0.8458 
0.6917 
0.434 
0.6201 
0.8456 
0.8789 
0.8798 
0.8789 
0.8456 
0.6201 
0.434 
0.3255 
0.4339 
0.691 
0.8689 
0.8796 
0.8689 
0.691 
0.4339 
0.3255 
SCALARS So_DAY=1825 double 1
LOOKUP_TABLE default
0.3107 
0.3842 
0.5462 
0.8189 
0.8775 
0.8189 
0.5462 
0.3842 
0.3107 
0.3841 
0.4871 
0.7226 
0.8689 
0.8796 
0.8689 
0.7226 
0.4871 
0.3841 
0.5457 
0.7222 
0.8585 
0.8788 
0.8799 
0.8788 
0.8585 
0.7222 
0.5457 
0.8182 
0.8688 
0.8788 
0.8799 
0.8799 
0.8799 
0.8788 
0.8688 
0.8182 
0.8778 
0.8797 
0.8799 
0.8799 
0.8251 
0.8799 
0.8799 
0.8797 
0.8778 
0.8346 
0.8727 
0.8793 
0.8799 
0.88 
0.8799 
0.8793 
0.8727 
0.8346 
0.5721 
0.7554 
0.8657 
0.8793 
0.8799 
0.8793 
0.8657 
0.7554 
0.5721 
0.3932 
0.5082 
0.755 
0.8726 
0.8798 
0.8726 
0.755 
0.5082 
0.3932 
0.3134 
0.3931 
0.5715 
0.8341 
0.8784 
0.8341 
0.5715 
0.3931 
0.3134 
SCALARS So_DAY=2190 double 1
LOOKUP_TABLE default
0.3049 
0.3605 
0.4783 
0.7424 
0.8684 
0.7424 
0.4783 
0.3605 
0.3049 
0.3604 
0.4346 
0.6032 
0.837 
0.8781 
0.837 
0.6032 
0.4346 
0.3604 
0.4779 
0.6028 
0.8013 
0.8732 
0.8796 
0.8732 
0.8013 
0.6028 
0.4779 
0.7411 
0.8367 
0.8732 
0.8792 
0.8799 
0.8792 
0.8732 
0.8367 
0.7411 
0.8701 
0.8784 
0.8797 
0.8799 
0.8251 
0.8799 
0.8797 
0.8784 
0.8701 
0.7704 
0.8508 
0.8759 
0.8796 
0.8799 
0.8796 
0.8759 
0.8508 
0.7704 
0.4976 
0.6392 
0.8252 
0.8759 
0.8798 
0.8759 
0.8252 
0.6392 
0.4976 
0.3682 
0.4493 
0.6388 
0.8506 
0.8789 
0.8506 
0.6388 
0.4493 
0.3682 
0.3068 
0.3681 
0.4971 
0.7692 
0.8725 
0.7692 
0.4971 
0.3681 
0.3068 
SCALARS So_DAY=2555 double 1
LOOKUP_TABLE default
0.3018 
0.3438 
0.4369 
0.6592 
0.8438 
0.6592 
0.4369 
0.3438 
0.3018 
0.3437 
0.4045 
0.5215 
0.7729 
0.8715 
0.7729 
0.5215 
0.4045 
0.3437 
0.4364 
0.5211 
0.699 
0.8536 
0.8779 
0.8536 
0.699 
0.5211 
0.4364 
0.6571 
0.772 
0.8536 
0.8757 
0.8789 
0.8757 
0.8536 
0.772 
0.6571 
0.8485 
0.8729 
0.8783 
0.8792 
0.8248 
0.8792 
0.8783 
0.8729 
0.8485 
0.6925 
0.8017 
0.8635 
0.8776 
0.8795 
0.8776 
0.8635 
0.8017 
0.6925 
0.4519 
0.5496 
0.7416 
0.8635 
0.8788 
0.8635 
0.7416 
0.5496 
0.4519 
0.3504 
0.4152 
0.5492 
0.8009 
0.8751 
0.8009 
0.5492 
0.4152 
0.3504 
0.303 
0.3503 
0.4514 
0.6905 
0.8557 
0.6905 
0.4514 
0.3503 
0.303 
SCALARS So_DAY=2920 double 1
LOOKUP_TABLE default
0.3001 
0.3317 
0.4101 
0.5895 
0.7969 
0.5895 
0.4101 
0.3317 
0.3001 
0.3316 
0.3847 
0.4705 
0.6871 
0.8503 
0.6871 
0.4705 
0.3847 
0.3316 
0.4096 
0.4701 
0.5953 
0.8048 
0.8712 
0.8048 
0.5953 
0.4701 
0.4096 
0.5867 
0.6852 
0.8046 
0.863 
0.8749 
0.863 
0.8046 
0.6852 
0.5867 
0.8056 
0.8551 
0.8729 
0.876 
0.8231 
0.876 
0.8729 
0.8551 
0.8056 
0.6214 
0.7278 
0.8307 
0.8703 
0.8773 
0.8703 
0.8307 
0.7278 
0.6214 
0.4218 
0.4915 
0.6386 
0.8305 
0.8751 
0.8305 
0.6386 
0.4915 
0.4218 
0.3373 
0.3938 
0.491 
0.7261 
0.8624 
0.7261 
0.491 
0.3938 
0.3373 
0.3008 
0.3373 
0.4213 
0.6184 
0.8202 
0.6184 
0.4213 
0.3373 
0.3008 
SCALARS So_DAY=3285 double 1
LOOKUP_TABLE default
0.3013 
0.3255 
0.3944 
0.5391 
0.7342 
0.5391 
0.3944 
0.3255 
0.3013 
0.3254 
0.3715 
0.4383 
0.6044 
0.7985 
0.6044 
0.4383 
0.3715 
0.3254 
0.3939 
0.4379 
0.5202 
0.7108 
0.844 
0.7108 
0.5202 
0.4379 
0.3939 
0.5359 
0.6016 
0.7095 
0.8224 
0.857 
0.8224 
0.7095 
0.6016 
0.5359 
0.745 
0.8088 
0.8505 
0.8618 
0.8156 
0.8618 
0.8505 
0.8088 
0.745 
0.5663 
0.6442 
0.7585 
0.8444 
0.8673 
0.8444 
0.7585 
0.6442 
0.5663 
0.4038 
0.4545 
0.5524 
0.7576 
0.8599 
0.7576 
0.5524 
0.4545 
0.4038 
0.3303 
0.3799 
0.454 
0.6412 
0.8262 
0.6412 
0.454 
0.3799 
0.3303 
0.3018 
0.3302 
0.4033 
0.5627 
0.7652 
0.5627 
0.4033 
0.3302 
0.3018 
SCALARS So_DAY=3650 double 1
LOOKUP_TABLE default
0.3018 
0.3207 
0.3818 
0.5032 
0.6751 
0.5032 
0.3818 
0.3207 
0.3018 
0.3207 
0.3603 
0.4168 
0.5455 
0.7253 
0.5455 
0.4168 
0.3603 
0.3207 
0.3812 
0.4163 
0.4736 
0.6102 
0.7754 
0.6102 
0.4736 
0.4163 
0.3812 
0.4994 
0.5417 
0.6073 
0.7318 
0.8029 
0.7318 
0.6073 
0.5417 
0.4994 
0.6846 
0.7384 
0.7903 
0.8165 
0.7877 
0.8165 
0.7903 
0.7384 
0.6846 
0.5262 
0.5781 
0.6611 
0.7839 
0.8345 
0.7839 
0.6611 
0.5781 
0.5262 
0.3905 
0.429 
0.4964 
0.658 
0.8145 
0.658 
0.4964 
0.429 
0.3905 
0.3248 
0.3681 
0.4284 
0.5737 
0.764 
0.5737 
0.4284 
0.3681 
0.3248 
0.3021 
0.3247 
0.3898 
0.5216 
0.7053 
0.5216 
0.3898 
0.3247 
0.3021 
SCALARS So_DAY=4015 double 1
LOOKUP_TABLE default
0.3016 
0.3167 
0.3708 
0.4764 
0.6268 
0.4764 
0.3708 
0.3167 
0.3016 
0.3166 
0.3507 
0.4016 
0.5048 
0.6579 
0.5048 
0.4016 
0.3507 
0.3166 
0.37 
0.401 
0.4421 
0.5401 
0.6755 
0.5401 
0.4421 
0.401 
0.37 
0.4722 
0.5004 
0.5359 
0.61 
0.6769 
0.61 
0.5359 
0.5004 
0.4722 
0.6341 
0.668 
0.6915 
0.7044 
0.6946 
0.7044 
0.6915 
0.668 
0.6341 
0.4963 
0.5311 
0.5778 
0.6724 
0.7462 
0.6724 
0.5778 
0.5311 
0.4963 
0.3789 
0.4111 
0.4595 
0.5727 
0.724 
0.5727 
0.4595 
0.4111 
0.3789 
0.3201 
0.3577 
0.4105 
0.5254 
0.692 
0.5254 
0.4105 
0.3577 
0.3201 
0.3019 
0.32 
0.378 
0.4912 
0.6527 
0.4912 
0.378 
0.32 
0.3019 
SCALARS So_DAY=4380 double 1
LOOKUP_TABLE default
0.301 
0.3129 
0.3607 
0.4547 
0.5886 
0.4547 
0.3607 
0.3129 
0.301 
0.3129 
0.342 
0.3893 
0.4754 
0.6052 
0.4754 
0.3893 
0.342 
0.3129 
0.36 
0.3888 
0.4203 
0.4952 
0.5963 
0.4952 
0.4203 
0.3888 
0.36 
0.4508 
0.4713 
0.4916 
0.5304 
0.5658 
0.5304 
0.4916 
0.4713 
0.4508 
0.5944 
0.6129 
0.6077 
0.5853 
0.509 
0.5853 
0.6077 
0.6129 
0.5944 
0.4723 
0.4969 
0.5227 
0.5715 
0.6125 
0.5715 
0.5227 
0.4969 
0.4723 
0.3683 
0.3978 
0.4334 
0.5177 
0.6318 
0.5177 
0.4334 
0.3978 
0.3683 
0.3158 
0.3484 
0.3971 
0.4915 
0.6329 
0.4915 
0.3971 
0.3484 
0.3158 
0.3012 
0.3157 
0.3674 
0.4674 
0.6104 
0.4674 
0.3674 
0.3157 
0.3012 
SCALARS Sw_DAY=0 double 1
LOOKUP_TABLE default
0.12 
0.12 
0.12 
0.12 
0.12 
0.12 
0.12 
0.12 
0.12 
0.12 
0.12 
0.12 
0.12 
0.12 
0.12 
0.12 
0.12 
0.12 
0.12 
0.12 
0.12 
0.12 
0.12 
0.12 
0.12 
0.12 
0.12 
0.12 
0.12 
0.12 
0.12 
0.12 
0.12 
0.12 
0.12 
0.12 
0.12 
0.12 
0.12 
0.12 
0.12 
0.12 
0.12 
0.12 
0.12 
0.12 
0.12 
0.12 
0.12 
0.12 
0.12 
0.12 
0.12 
0.12 
0.12 
0.12 
0.12 
0.12 
0.12 
0.12 
0.12 
0.12 
0.12 
0.12 
0.12 
0.12 
0.12 
0.12 
0.12 
0.12 
0.12 
0.12 
0.12 
0.12 
0.12 
0.12 
0.12 
0.12 
0.12 
0.12 
0.12 
SCALARS Sw_DAY=365 double 1
LOOKUP_TABLE default
0.1212 
0.1212 
0.1212 
0.1212 
0.1212 
0.1212 
0.1212 
0.1212 
0.1212 
0.1212 
0.1212 
0.1212 
0.1212 
0.1212 
0.1212 
0.1212 
0.1212 
0.1212 
0.1212 
0.1212 
0.1212 
0.1212 
0.1212 
0.1212 
0.1212 
0.1212 
0.1212 
0.1212 
0.1212 
0.1212 
0.1212 
0.1212 
0.1212 
0.1212 
0.1212 
0.1212 
0.1212 
0.1212 
0.1212 
0.1212 
0.121 
0.1212 
0.1212 
0.1212 
0.1212 
0.1212 
0.1212 
0.1212 
0.1212 
0.1212 
0.1212 
0.1212 
0.1212 
0.1212 
0.1212 
0.1212 
0.1212 
0.1212 
0.1212 
0.1212 
0.1212 
0.1212 
0.1212 
0.1212 
0.1212 
0.1212 
0.1212 
0.1212 
0.1212 
0.1212 
0.1212 
0.1212 
0.1212 
0.1212 
0.1212 
0.1212 
0.1212 
0.1212 
0.1212 
0.1212 
0.1212 
SCALARS Sw_DAY=730 double 1
LOOKUP_TABLE default
0.5735 
0.2749 
0.1271 
0.121 
0.121 
0.121 
0.1271 
0.2749 
0.5735 
0.2751 
0.1302 
0.1211 
0.121 
0.121 
0.121 
0.1211 
0.1302 
0.2751 
0.1271 
0.1211 
0.121 
0.121 
0.121 
0.121 
0.121 
0.1211 
0.1271 
0.121 
0.121 
0.121 
0.121 
0.121 
0.121 
0.121 
0.121 
0.121 
0.121 
0.121 
0.121 
0.121 
0.1208 
0.121 
0.121 
0.121 
0.121 
0.121 
0.121 
0.121 
0.121 
0.121 
0.121 
0.121 
0.121 
0.121 
0.1257 
0.1211 
0.121 
0.121 
0.121 
0.121 
0.121 
0.1211 
0.1257 
0.2566 
0.1281 
0.1211 
0.121 
0.121 
0.121 
0.1211 
0.1281 
0.2566 
0.563 
0.2568 
0.1258 
0.121 
0.121 
0.121 
0.1258 
0.2568 
0.563 
SCALARS Sw_DAY=1095 double 1
LOOKUP_TABLE default
0.6496 
0.4906 
0.1978 
0.1225 
0.1206 
0.1225 
0.1978 
0.4906 
0.6496 
0.4907 
0.2399 
0.1267 
0.1206 
0.1205 
0.1206 
0.1267 
0.2399 
0.4907 
0.1981 
0.1267 
0.1207 
0.1205 
0.1205 
0.1205 
0.1207 
0.1267 
0.1981 
0.1225 
0.1206 
0.1205 
0.1205 
0.1205 
0.1205 
0.1205 
0.1206 
0.1225 
0.1206 
0.1205 
0.1205 
0.1205 
0.1203 
0.1205 
0.1205 
0.1205 
0.1206 
0.1219 
0.1206 
0.1205 
0.1205 
0.1205 
0.1205 
0.1205 
0.1206 
0.1219 
0.1823 
0.1248 
0.1207 
0.1205 
0.1205 
0.1205 
0.1207 
0.1248 
0.1823 
0.471 
0.2171 
0.1248 
0.1206 
0.1205 
0.1206 
0.1248 
0.2171 
0.471 
0.6435 
0.4712 
0.1827 
0.1219 
0.1206 
0.1219 
0.1827 
0.4712 
0.6435 
SCALARS Sw_DAY=1460 double 1
LOOKUP_TABLE default
0.6786 
0.5786 
0.3374 
0.1354 
0.1205 
0.1354 
0.3374 
0.5786 
0.6786 
0.5787 
0.4099 
0.1674 
0.1216 
0.1202 
0.1216 
0.1674 
0.4099 
0.5787 
0.3381 
0.1676 
0.123 
0.1202 
0.1201 
0.1202 
0.123 
0.1676 
0.3381 
0.1357 
0.1216 
0.1202 
0.1201 
0.1201 
0.1201 
0.1202 
0.1216 
0.1357 
0.1204 
0.1202 
0.1201 
0.1201 
0.12 
0.1201 
0.1201 
0.1202 
0.1204 
0.1309 
0.1211 
0.1202 
0.1201 
0.1201 
0.1201 
0.1202 
0.1211 
0.1309 
0.3083 
0.1542 
0.1219 
0.1202 
0.1201 
0.1202 
0.1219 
0.1542 
0.3083 
0.566 
0.3799 
0.1544 
0.1211 
0.1202 
0.1211 
0.1544 
0.3799 
0.566 
0.6745 
0.5661 
0.309 
0.1311 
0.1204 
0.1311 
0.309 
0.5661 
0.6745 
SCALARS Sw_DAY=1825 double 1
LOOKUP_TABLE default
0.6893 
0.6158 
0.4538 
0.1811 
0.1225 
0.1811 
0.4538 
0.6158 
0.6893 
0.6159 
0.5129 
0.2774 
0.1311 
0.1204 
0.1311 
0.2774 
0.5129 
0.6159 
0.4543 
0.2778 
0.1415 
0.1212 
0.1201 
0.1212 
0.1415 
0.2778 
0.4543 
0.1818 
0.1312 
0.1212 
0.1201 
0.1201 
0.1201 
0.1212 
0.1312 
0.1818 
0.1222 
0.1203 
0.1201 
0.1201 
0.12 
0.1201 
0.1201 
0.1203 
0.1222 
0.1654 
0.1273 
0.1207 
0.1201 
0.12 
0.1201 
0.1207 
0.1273 
0.1654 
0.4279 
0.2446 
0.1343 
0.1207 
0.1201 
0.1207 
0.1343 
0.2446 
0.4279 
0.6068 
0.4918 
0.245 
0.1274 
0.1202 
0.1274 
0.245 
0.4918 
0.6068 
0.6866 
0.6069 
0.4285 
0.1659 
0.1216 
0.1659 
0.4285 
0.6069 
0.6866 
SCALARS Sw_DAY=2190 double 1
LOOKUP_TABLE default
0.6951 
0.6395 
0.5217 
0.2576 
0.1316 
0.2576 
0.5217 
0.6395 
0.6951 
0.6396 
0.5654 
0.3968 
0.163 
0.1219 
0.163 
0.3968 
0.5654 
0.6396 
0.5221 
0.3972 
0.1987 
0.1268 
0.1204 
0.1268 
0.1987 
0.3972 
0.5221 
0.2589 
0.1633 
0.1268 
0.1208 
0.1201 
0.1208 
0.1268 
0.1633 
0.2589 
0.1299 
0.1216 
0.1203 
0.1201 
0.12 
0.1201 
0.1203 
0.1216 
0.1299 
0.2296 
0.1492 
0.1241 
0.1204 
0.1201 
0.1204 
0.1241 
0.1492 
0.2296 
0.5024 
0.3608 
0.1748 
0.1241 
0.1202 
0.1241 
0.1748 
0.3608 
0.5024 
0.6318 
0.5507 
0.3612 
0.1494 
0.1211 
0.1494 
0.3612 
0.5507 
0.6318 
0.6932 
0.6319 
0.5029 
0.2308 
0.1275 
0.2308 
0.5029 
0.6319 
0.6932 
SCALARS Sw_DAY=2555 double 1
LOOKUP_TABLE default
0.6982 
0.6562 
0.5631 
0.3408 
0.1562 
0.3408 
0.5631 
0.6562 
0.6982 
0.6563 
0.5955 
0.4785 
0.2271 
0.1285 
0.2271 
0.4785 
0.5955 
0.6563 
0.5636 
0.4789 
0.301 
0.1464 
0.1221 
0.1464 
0.301 
0.4789 
0.5636 
0.3429 
0.228 
0.1464 
0.1243 
0.1211 
0.1243 
0.1464 
0.228 
0.3429 
0.1515 
0.1271 
0.1217 
0.1208 
0.1204 
0.1208 
0.1217 
0.1271 
0.1515 
0.3075 
0.1983 
0.1365 
0.1224 
0.1205 
0.1224 
0.1365 
0.1983 
0.3075 
0.5481 
0.4504 
0.2584 
0.1365 
0.1212 
0.1365 
0.2584 
0.4504 
0.5481 
0.6496 
0.5848 
0.4508 
0.1991 
0.1249 
0.1991 
0.4508 
0.5848 
0.6496 
0.697 
0.6497 
0.5486 
0.3095 
0.1443 
0.3095 
0.5486 
0.6497 
0.697 
SCALARS Sw_DAY=2920 double 1
LOOKUP_TABLE default
0.6999 
0.6683 
0.5899 
0.4105 
0.2031 
0.4105 
0.5899 
0.6683 
0.6999 
0.6684 
0.6153 
0.5295 
0.3129 
0.1497 
0.3129 
0.5295 
0.6153 
0.6684 
0.5904 
0.5299 
0.4047 
0.1952 
0.1288 
0.1952 
0.4047 
0.5299 
0.5904 
0.4133 
0.3148 
0.1954 
0.137 
0.1251 
0.137 
0.1954 
0.3148 
0.4133 
0.1944 
0.1449 
0.1271 
0.124 
0.122 
0.124 
0.1271 
0.1449 
0.1944 
0.3786 
0.2722 
0.1693 
0.1297 
0.1227 
0.1297 
0.1693 
0.2722 
0.3786 
0.5782 
0.5085 
0.3614 
0.1695 
0.1249 
0.1695 
0.3614 
0.5085 
0.5782 
0.6627 
0.6062 
0.509 
0.2739 
0.1376 
0.2739 
0.509 
0.6062 
0.6627 
0.6992 
0.6627 
0.5787 
0.3816 
0.1798 
0.3816 
0.5787 
0.6627 
0.6992 
SCALARS Sw_DAY=3285 double 1
LOOKUP_TABLE default
0.6987 
0.6745 
0.6056 
0.4609 
0.2658 
0.4609 
0.6056 
0.6745 
0.6987 
0.6746 
0.6285 
0.5617 
0.3956 
0.2015 
0.3956 
0.5617 
0.6285 
0.6746 
0.6061 
0.5621 
0.4798 
0.2892 
0.156 
0.2892 
0.4798 
0.5621 
0.6061 
0.4641 
0.3984 
0.2905 
0.1776 
0.143 
0.1776 
0.2905 
0.3984 
0.4641 
0.255 
0.1912 
0.1495 
0.1382 
0.1296 
0.1382 
0.1495 
0.1912 
0.255 
0.4337 
0.3558 
0.2415 
0.1556 
0.1327 
0.1556 
0.2415 
0.3558 
0.4337 
0.5962 
0.5455 
0.4476 
0.2424 
0.1401 
0.2424 
0.4476 
0.5455 
0.5962 
0.6697 
0.6201 
0.546 
0.3588 
0.1738 
0.3588 
0.546 
0.6201 
0.6697 
0.6982 
0.6698 
0.5967 
0.4373 
0.2348 
0.4373 
0.5967 