# vtk DataFile Version 3.0
MOAB 5.4.1
ASCII
DATASET UNSTRUCTURED_GRID
POINTS 200 double
0 0 0
160 0 0
320 0 0
480 0 0
640 0 0
720 0 0
880 0 0
1040 0 0
1200 0 0
1360 0 0
0 160 0
160 160 0
320 160 0
480 160 0
640 160 0
720 160 0
880 160 0
1040 160 0
1200 160 0
1360 160 0
0 320 0
160 320 0
320 320 0
480 320 0
640 320 0
720 320 0
880 320 0
1040 320 0
1200 320 0
1360 320 0
0 480 0
160 480 0
320 480 0
480 480 0
640 480 0
720 480 0
880 480 0
1040 480 0
1200 480 0
1360 480 0
0 640 0
160 640 0
320 640 0
480 640 0
640 640 0
720 640 0
880 640 0
1040 640 0
1200 640 0
1360 640 0
0 720 0
160 720 0
320 720 0
480 720 0
640 720 0
720 720 0
880 720 0
1040 720 0
1200 720 0
1360 720 0
0 880 0
160 880 0
320 880 0
480 880 0
640 880 0
720 880 0
880 880 0
1040 880 0
1200 880 0
1360 880 0
0 1040 0
160 1040 0
320 1040 0
480 1040 0
640 1040 0
720 1040 0
880 1040 0
1040 1040 0
1200 1040 0
1360 1040 0
0 1200 0
160 1200 0
320 1200 0
480 1200 0
640 1200 0
720 1200 0
880 1200 0
1040 1200 0
1200 1200 0
1360 1200 0
0 1360 0
160 1360 0
320 1360 0
480 1360 0
640 1360 0
720 1360 0
880 1360 0
1040 1360 0
1200 1360 0
1360 1360 0
0 0 -30
160 0 -30
320 0 -30
480 0 -30
640 0 -30
720 0 -30
880 0 -30
1040 0 -30
1200 0 -30
1360 0 -30
0 160 -30
160 160 -30
320 160 -30
480 160 -30
640 160 -30
720 160 -30
880 160 -30
1040 160 -30
1200 160 -30
1360 160 -30
0 320 -30
160 320 -30
320 320 -30
480 320 -30
640 320 -30
720 320 -30
880 320 -30
1040 320 -30
1200 320 -30
1360 320 -30
0 480 -30
160 480 -30
320 480 -30
480 480 -30
640 480 -30
720 480 -30
880 480 -30
1040 480 -30
1200 480 -30
1360 480 -30
0 640 -30
160 640 -30
320 640 -30
480 640 -30
640 640 -30
720 640 -30
880 640 -30
1040 640 -30
1200 640 -30
1360 640 -30
0 720 -30
160 720 -30
320 720 -30
480 720 -30
640 720 -30
720 720 -30
880 720 -30
1040 720 -30
1200 720 -30
1360 720 -30
0 880 -30
160 880 -30
320 880 -30
480 880 -30
640 880 -30
720 880 -30
880 880 -30
1040 880 -30
1200 880 -30
1360 880 -30
0 1040 -30
160 1040 -30
320 1040 -30
480 1040 -30
640 1040 -30
720 1040 -30
880 1040 -30
1040 1040 -30
1200 1040 -30
1360 1040 -30
0 1200 -30
160 1200 -30
320 1200 -30
480 1200 -30
640 1200 -30
720 1200 -30
880 1200 -30
1040 1200 -30
1200 1200 -30
1360 1200 -30
0 1360 -30
160 1360 -30
320 1360 -30
480 1360 -30
640 1360 -30
720 1360 -30
880 1360 -30
1040 1360 -30
1200 1360 -30
1360 1360 -30
CELLS 81 729
8 0 1 11 10 100 101 111 110
8 10 11 21 20 110 111 121 120
8 20 21 31 30 120 121 131 130
8 30 31 41 40 130 131 141 140
8 40 41 51 50 140 141 151 150
8 50 51 61 60 150 151 161 160
8 60 61 71 70 160 161 171 170
8 70 71 81 80 170 171 181 180
8 80 81 91 90 180 181 191 190
8 1 2 12 11 101 102 112 111
8 11 12 22 21 111 112 122 121
8 21 22 32 31 121 122 132 131
8 31 32 42 41 131 132 142 141
8 41 42 52 51 141 142 152 151
8 51 52 62 61 151 152 162 161
8 61 62 72 71 161 162 172 171
8 71 72 82 81 171 172 182 181
8 81 82 92 91 181 182 192 191
8 2 3 13 12 102 103 113 112
8 12 13 23 22 112 113 123 122
8 22 23 33 32 122 123 133 132
8 32 33 43 42 132 133 143 142
8 42 43 53 52 142 143 153 152
8 52 53 63 62 152 153 163 162
8 62 63 73 72 162 163 173 172
8 72 73 83 82 172 173 183 182
8 82 83 93 92 182 183 193 192
8 3 4 14 13 103 104 114 113
8 13 14 24 23 113 114 124 123
8 23 24 34 33 123 124 134 133
8 33 34 44 43 133 134 144 143
8 43 44 54 53 143 144 154 153
8 53 54 64 63 153 154 164 163
8 63 64 74 73 163 164 174 173
8 73 74 84 83 173 174 184 183
8 83 84 94 93 183 184 194 193
8 4 5 15 14 104 105 115 114
8 14 15 25 24 114 115 125 124
8 24 25 35 34 124 125 135 134
8 34 35 45 44 134 135 145 144
8 44 45 55 54 144 145 155 154
8 54 55 65 64 154 155 165 164
8 64 65 75 74 164 165 175 174
8 74 75 85 84 174 175 185 184
8 84 85 95 94 184 185 195 194
8 5 6 16 15 105 106 116 115
8 15 16 26 25 115 116 126 125
8 25 26 36 35 125 126 136 135
8 35 36 46 45 135 136 146 145
8 45 46 56 55 145 146 156 155
8 55 56 66 65 155 156 166 165
8 65 66 76 75 165 166 176 175
8 75 76 86 85 175 176 186 185
8 85 86 96 95 185 186 196 195
8 6 7 17 16 106 107 117 116
8 16 17 27 26 116 117 127 126
8 26 27 37 36 126 127 137 136
8 36 37 47 46 136 137 147 146
8 46 47 57 56 146 147 157 156
8 56 57 67 66 156 157 167 166
8 66 67 77 76 166 167 177 176
8 76 77 87 86 176 177 187 186
8 86 87 97 96 186 187 197 196
8 7 8 18 17 107 108 118 117
8 17 18 28 27 117 118 128 127
8 27 28 38 37 127 128 138 137
8 37 38 48 47 137 138 148 147
8 47 48 58 57 147 148 158 157
8 57 58 68 67 157 158 168 167
8 67 68 78 77 167 168 178 177
8 77 78 88 87 177 178 188 187
8 87 88 98 97 187 188 198 197
8 8 9 19 18 108 109 119 118
8 18 19 29 28 118 119 129 128
8 28 29 39 38 128 129 139 138
8 38 39 49 48 138 139 149 148
8 48 49 59 58 148 149 159 158
8 58 59 69 68 158 159 169 168
8 68 69 79 78 168 169 179 178
8 78 79 89 88 178 179 189 188
8 88 89 99 98 188 189 199 198
CELL_TYPES 81
12
12
12
12
12
12
12
12
12
12
12
12
12
12
12
12
12
12
12
12
12
12
12
12
12
12
12
12
12
12
12
12
12
12
12
12
12
12
12
12
12
12
12
12
12
12
12
12
12
12
12
12
12
12
12
12
12
12
12
12
12
12
12
12
12
12
12
12
12
12
12
12
12
12
12
12
12
12
12
12
12
POINT_DATA 200
SCALARS GLOBAL_ID int 1
LOOKUP_TABLE default
-1 
-1 
-1 
-1 
-1 
-1 
-1 
-1 
-1 
-1 
-1 
-1 
-1 
-1 
-1 
-1 
-1 
-1 
-1 
-1 
-1 
-1 
-1 
-1 
-1 
-1 
-1 
-1 
-1 
-1 
-1 
-1 
-1 
-1 
-1 
-1 
-1 
-1 
-1 
-1 
-1 
-1 
-1 
-1 
-1 
-1 
-1 
-1 
-1 
-1 
-1 
-1 
-1 
-1 
-1 
-1 
-1 
-1 
-1 
-1 
-1 
-1 
-1 
-1 
-1 
-1 
-1 
-1 
-1 
-1 
-1 
-1 
-1 
-1 
-1 
-1 
-1 
-1 
-1 
-1 
-1 
-1 
-1 
-1 
-1 
-1 
-1 
-1 
-1 
-1 
-1 
-1 
-1 
-1 
-1 
-1 
-1 
-1 
-1 
-1 
-1 
-1 
-1 
-1 
-1 
-1 
-1 
-1 
-1 
-1 
-1 
-1 
-1 
-1 
-1 
-1 
-1 
-1 
-1 
-1 
-1 
-1 
-1 
-1 
-1 
-1 
-1 
-1 
-1 
-1 
-1 
-1 
-1 
-1 
-1 
-1 
-1 
-1 
-1 
-1 
-1 
-1 
-1 
-1 
-1 
-1 
-1 
-1 
-1 
-1 
-1 
-1 
-1 
-1 
-1 
-1 
-1 
-1 
-1 
-1 
-1 
-1 
-1 
-1 
-1 
-1 
-1 
-1 
-1 
-1 
-1 
-1 
-1 
-1 
-1 
-1 
-1 
-1 
-1 
-1 
-1 
-1 
-1 
-1 
-1 
-1 
-1 
-1 
-1 
-1 
-1 
-1 
-1 
-1 
-1 
-1 
-1 
-1 
-1 
-1 
CELL_DATA 81
SCALARS GLOBAL_ID int 1
LOOKUP_TABLE default
-1 
-1 
-1 
-1 
-1 
-1 
-1 
-1 
-1 
-1 
-1 
-1 
-1 
-1 
-1 
-1 
-1 
-1 
-1 
-1 
-1 
-1 
-1 
-1 
-1 
-1 
-1 
-1 
-1 
-1 
-1 
-1 
-1 
-1 
-1 
-1 
-1 
-1 
-1 
-1 
-1 
-1 
-1 
-1 
-1 
-1 
-1 
-1 
-1 
-1 
-1 
-1 
-1 
-1 
-1 
-1 
-1 
-1 
-1 
-1 
-1 
-1 
-1 
-1 
-1 
-1 
-1 
-1 
-1 
-1 
-1 
-1 
-1 
-1 
-1 
-1 
-1 
-1 
-1 
-1 
-1 
SCALARS id int 1
LOOKUP_TABLE default
0 
1 
2 
3 
4 
5 
6 
7 
8 
9 
10 
11 
12 
13 
14 
15 
16 
17 
18 
19 
20 
21 
22 
23 
24 
25 
26 
27 
28 
29 
30 
31 
32 
33 
34 
35 
36 
37 
38 
39 
40 
41 
42 
43 
44 
45 
46 
47 
48 
49 
50 
51 
52 
53 
54 
55 
56 
57 
58 
59 
60 
61 
62 
63 
64 
65 
66 
67 
68 
69 
70 
71 
72 
73 
74 
75 
76 
77 
78 
79 
80 
SCALARS permeability double 1
LOOKUP_TABLE default
100 
100 
100 
100 
100 
100 
100 
100 
100 
100 
100 
100 
100 
100 
100 
100 
100 
100 
100 
100 
100 
100 
100 
100 
100 
100 
100 
100 
100 
100 
100 
100 
100 
100 
100 
100 
100 
100 
100 
100 
100 
100 
100 
100 
100 
100 
100 
100 
100 
100 
100 
100 
100 
100 
100 
100 
100 
100 
100 
100 
100 
100 
100 
100 
100 
100 
100 
100 
100 
100 
100 
100 
100 
100 
100 
100 
100 
100 
100 
100 
100 
SCALARS porosity double 1
LOOKUP_TABLE default
0.28 
0.28 
0.28 
0.28 
0.28 
0.28 
0.28 
0.28 
0.28 
0.28 
0.28 
0.28 
0.28 
0.28 
0.28 
0.28 
0.28 
0.28 
0.28 
0.28 
0.28 
0.28 
0.28 
0.28 
0.28 
0.28 
0.28 
0.28 
0.28 
0.28 
0.28 
0.28 
0.28 
0.28 
0.28 
0.28 
0.28 
0.28 
0.28 
0.28 
0.28 
0.28 
0.28 
0.28 
0.28 
0.3 
0.3 
0.3 
0.3 
0.3 
0.3 
0.3 
0.3 
0.3 
0.3 
0.3 
0.3 
0.3 
0.3 
0.3 
0.3 
0.3 
0.3 
0.3 
0.3 
0.3 
0.3 
0.3 
0.3 
0.3 
0.3 
0.3 
0.3 
0.3 
0.3 
0.3 
0.3 
0.3 
0.3 
0.3 
0.3 
SCALARS P_DAY=0 double 1
LOOKUP_TABLE default
5382 
5382 
5382 
5382 
5382 
5382 
5382 
5382 
5382 
5382 
5382 
5382 
5382 
5382 
5382 
5382 
5382 
5382 
5382 
5382 
5382 
5382 
5382 
5382 
5382 
5382 
5382 
5382 
5382 
5382 
5382 
5382 
5382 
5382 
5382 
5382 
5382 
5382 
5382 
5382 
5382 
5382 
5382 
5382 
5382 
5382 
5382 
5382 
5382 
5382 
5382 
5382 
5382 
5382 
5382 
5382 
5382 
5382 
5382 
5382 
5382 
5382 
5382 
5382 
5382 
5382 
5382 
5382 
5382 
5382 
5382 
5382 
5382 
5382 
5382 
5382 
5382 
5382 
5382 
5382 
5382 
SCALARS P_DAY=365 double 1
LOOKUP_TABLE default
2031 
2030 
2028 
2026 
2024 
2021 
2019 
2017 
2015 
2030 
2029 
2027 
2024 
2022 
2019 
2016 
2014 
2013 
2028 
2027 
2025 
2021 
2018 
2015 
2011 
2008 
2006 
2026 
2025 
2022 
2017 
2013 
2009 
2004 
1999 
1996 
2024 
2022 
2019 
2014 
2009 
2003 
1996 
1989 
1984 
2022 
2020 
2016 
2010 
2004 
1997 
1987 
1977 
1970 
2020 
2017 
2012 
2004 
1996 
1987 
1972 
1956 
1943 
2018 
2015 
2009 
2000 
1989 
1977 
1956 
1929 
1901 
2017 
2014 
2007 
1997 
1985 
1971 
1943 
1901 
1829 
SCALARS P_DAY=730 double 1
LOOKUP_TABLE default
3548 
3465 
3411 
3363 
3342 
3333 
3326 
3322 
3320 
3465 
3431 
3388 
3350 
3338 
3331 
3325 
3320 
3318 
3411 
3388 
3357 
3340 
3333 
3327 
3322 
3318 
3316 
3363 
3350 
3340 
3332 
3327 
3323 
3317 
3314 
3312 
3341 
3338 
3333 
3327 
3323 
3319 
3314 
3310 
3308 
3332 
3331 
3327 
3322 
3319 
3315 
3310 
3306 
3304 
3326 
3324 
3321 
3317 
3314 
3310 
3305 
3300 
3297 
3321 
3320 
3317 
3313 
3310 
3306 
3300 
3294 
3288 
3319 
3318 
3315 
3311 
3308 
3304 
3297 
3288 
3273 
SCALARS P_DAY=1095 double 1
LOOKUP_TABLE default
4373 
4293 
4242 
4199 
4173 
4150 
4140 
4135 
4133 
4293 
4260 
4222 
4186 
4163 
4146 
4138 
4133 
4131 
4242 
4222 
4195 
4165 
4149 
4141 
4134 
4129 
4127 
4199 
4186 
4165 
4147 
4140 
4135 
4128 
4123 
4121 
4173 
4163 
4149 
4140 
4135 
4129 
4123 
4117 
4114 
4150 
4146 
4141 
4134 
4129 
4124 
4117 
4111 
4107 
4140 
4138 
4134 
4128 
4123 
4117 
4108 
4100 
4094 
4135 
4133 
4129 
4123 
4117 
4111 
4100 
4088 
4076 
4133 
4131 
4126 
4120 
4114 
4107 
4094 
4076 
4047 
SCALARS P_DAY=1460 double 1
LOOKUP_TABLE default
5216 
5140 
5090 
5051 
5028 
5006 
4983 
4976 
4973 
5140 
5108 
5072 
5041 
5018 
4997 
4979 
4974 
4971 
5090 
5072 
5049 
5022 
5003 
4984 
4974 
4969 
4966 
5051 
5040 
5022 
4999 
4984 
4975 
4968 
4963 
4960 
5027 
5018 
5003 
4983 
4975 
4969 
4962 
4956 
4953 
5005 
4996 
4984 
4975 
4969 
4963 
4956 
4949 
4945 
4982 
4979 
4974 
4968 
4962 
4956 
4947 
4938 
4932 
4976 
4973 
4969 
4962 
4956 
4949 
4938 
4925 
4913 
4973 
4970 
4966 
4959 
4953 
4945 
4932 
4913 
4882 
SCALARS P_DAY=1825 double 1
LOOKUP_TABLE default
5279 
5204 
5154 
5114 
5092 
5071 
5046 
5032 
5029 
5203 
5171 
5135 
5105 
5084 
5063 
5039 
5029 
5026 
5154 
5135 
5112 
5087 
5068 
5049 
5029 
5023 
5020 
5114 
5105 
5087 
5066 
5048 
5030 
5019 
5014 
5010 
5092 
5083 
5068 
5048 
5032 
5020 
5012 
5005 
5001 
5071 
5063 
5048 
5030 
5020 
5013 
5004 
4996 
4991 
5045 
5038 
5029 
5019 
5012 
5004 
4992 
4980 
4971 
5032 
5029 
5023 
5014 
5005 
4996 
4980 
4962 
4943 
5029 
5026 
5020 
5011 
5001 
4991 
4971 
4943 
4897 
SCALARS P_DAY=2190 double 1
LOOKUP_TABLE default
5337 
5261 
5212 
5173 
5152 
5133 
5109 
5090 
5085 
5261 
5229 
5193 
5164 
5144 
5125 
5103 
5085 
5081 
5212 
5193 
5171 
5148 
5130 
5112 
5089 
5077 
5074 
5173 
5164 
5148 
5127 
5111 
5094 
5074 
5067 
5064 
5152 
5144 
5130 
5111 
5095 
5079 
5064 
5057 
5054 
5132 
5125 
5112 
5094 
5078 
5065 
5055 
5048 
5043 
5108 
5102 
5089 
5073 
5064 
5055 
5043 
5032 
5023 
5089 
5085 
5077 
5067 
5058 
5048 
5032 
5013 
4995 
5084 
5081 
5074 
5064 
5054 
5043 
5023 
4995 
4949 
SCALARS P_DAY=2555 double 1
LOOKUP_TABLE default
5397 
5321 
5272 
5233 
5213 
5195 
5172 
5154 
5145 
5321 
5289 
5253 
5224 
5205 
5188 
5166 
5147 
5140 
5272 
5253 
5231 
5209 
5192 
5175 
5154 
5136 
5132 
5233 
5224 
5209 
5190 
5174 
5158 
5137 
5123 
5120 
5213 
5205 
5192 
5174 
5158 
5143 
5122 
5112 
5109 
5194 
5187 
5175 
5158 
5143 
5127 
5109 
5102 
5097 
5172 
5165 
5153 
5136 
5122 
5109 
5097 
5086 
5077 
5153 
5146 
5136 
5123 
5113 
5102 
5086 
5067 
5049 
5144 
5140 
5131 
5120 
5109 
5097 
5077 
5049 
5003 
SCALARS P_DAY=2920 double 1
LOOKUP_TABLE default
5459 
5384 
5334 
5296 
5276 
5259 
5238 
5221 
5209 
5384 
5352 
5315 
5287 
5269 
5252 
5232 
5215 
5203 
5334 
5315 
5294 
5272 
5256 
5240 
5220 
5202 
5193 
5296 
5287 
5272 
5253 
5238 
5223 
5203 
5185 
5179 
5276 
5269 
5255 
5238 
5223 
5208 
5188 
5171 
5167 
5258 
5252 
5239 
5223 
5208 
5193 
5171 
5157 
5154 
5237 
5231 
5219 
5202 
5187 
5170 
5152 
5140 
5132 
5220 
5213 
5201 
5184 
5171 
5158 
5140 
5122 
5104 
5208 
5202 
5193 
5179 
5167 
5154 
5133 
5104 
5057 
SCALARS P_DAY=3285 double 1
LOOKUP_TABLE default
5524 
5449 
5400 
5362 
5342 
5325 
5306 
5291 
5279 
5449 
5417 
5381 
5353 
5335 
5319 
5300 
5284 
5273 
5400 
5381 
5360 
5338 
5322 
5307 
5288 
5272 
5260 
5361 
5353 
5338 
5320 
5305 
5290 
5271 
5254 
5242 
5342 
5335 
5322 
5305 
5291 
5276 
5256 
5237 
5227 
5325 
5318 
5307 
5290 
5275 
5260 
5239 
5218 
5211 
5305 
5299 
5287 
5270 
5255 
5238 
5214 
5195 
5188 
5289 
5283 
5270 
5252 
5235 
5218 
5195 
5176 
5158 
5277 
5271 
5258 
5242 
5227 
5212 
5188 
5158 
5111 
SCALARS P_DAY=3650 double 1
LOOKUP_TABLE default
5593 
5518 
5469 
5431 
5412 
5396 
5378 
5364 
5355 
5518 
5487 
5451 
5422 
5405 
5390 
5372 
5357 
5347 
5469 
5450 
5429 
5407 
5392 
5377 
5360 
5344 
5333 
5431 
5422 
5407 
5389 
5375 
5361 
5342 
5326 
5313 
5412 
5405 
5392 
5375 
5361 
5346 
5326 
5308 
5293 
5395 
5389 
5377 
5361 
5346 
5330 
5309 
5288 
5272 
5377 
5371 
5358 
5341 
5325 
5308 
5282 
5256 
5243 
5362 
5355 
5343 
5324 
5306 
5286 
5256 
5228 
5209 
5352 
5345 
5330 
5311 
5292 
5272 
5243 
5210 
5161 
SCALARS P_DAY=4015 double 1
LOOKUP_TABLE default
5667 
5592 
5543 
5506 
5487 
5471 
5454 
5442 
5434 
5592 
5560 
5525 
5496 
5480 
5464 
5448 
5435 
5427 
5543 
5524 
5503 
5481 
5466 
5452 
5435 
5422 
5413 
5505 
5496 
5481 
5463 
5449 
5435 
5417 
5402 
5391 
5486 
5479 
5466 
5449 
5435 
5420 
5400 
5382 
5369 
5470 
5464 
5452 
5435 
5420 
5404 
5382 
5360 
5343 
5453 
5447 
5434 
5416 
5399 
5381 
5354 
5325 
5301 
5440 
5433 
5420 
5400 
5381 
5359 
5325 
5285 
5251 
5432 
5425 
5410 
5388 
5366 
5341 
5300 
5251 
5190 
SCALARS P_DAY=4380 double 1
LOOKUP_TABLE default
5745 
5670 
5622 
5584 
5566 
5550 
5534 
5523 
5516 
5670 
5639 
5603 
5575 
5558 
5543 
5528 
5516 
5509 
5622 
5603 
5581 
5560 
5545 
5531 
5515 
5502 
5495 
5584 
5575 
5560 
5542 
5528 
5514 
5497 
5482 
5473 
5565 
5558 
5545 
5528 
5513 
5499 
5479 
5462 
5451 
5550 
5543 
5531 
5514 
5499 
5482 
5459 
5438 
5424 
5533 
5527 
5514 
5496 
5478 
5459 
5429 
5399 
5375 
5521 
5515 
5501 
5481 
5461 
5437 
5399 
5351 
5303 
5515 
5507 
5493 
5472 
5449 
5423 
5374 
5303 
5185 
SCALARS P_DAY=4745 double 1
LOOKUP_TABLE default
5219 
5143 
5093 
5055 
5036 
5019 
5003 
4992 
4986 
5143 
5111 
5074 
5045 
5028 
5012 
4997 
4985 
4978 
5093 
5074 
5052 
5029 
5014 
4999 
4983 
4970 
4963 
5055 
5045 
5029 
5011 
4996 
4981 
4963 
4948 
4939 
5036 
5028 
5014 
4996 
4981 
4965 
4943 
4925 
4913 
5020 
5013 
5000 
4981 
4965 
4947 
4922 
4898 
4883 
5004 
4997 
4983 
4963 
4944 
4921 
4887 
4853 
4826 
4993 
4985 
4971 
4948 
4925 
4898 
4853 
4797 
4741 
4986 
4979 
4963 
4939 
4913 
4883 
4826 
4741 
4595 
SCALARS P_DAY=5110 double 1
LOOKUP_TABLE default
4680 
4601 
4550 
4511 
4492 
4476 
4460 
4449 
4443 
4601 
4568 
4531 
4502 
4484 
4469 
4453 
4442 
4436 
4551 
4531 
4508 
4486 
4470 
4456 
4440 
4428 
4421 
4512 
4502 
4486 
4467 
4452 
4438 
4420 
4406 
4397 
4493 
4485 
4471 
4453 
4437 
4422 
4401 
4383 
4372 
4476 
4469 
4456 
4438 
4422 
4405 
4380 
4357 
4342 
4461 
4454 
4440 
4421 
4402 
4380 
4346 
4312 
4286 
4450 
4442 
4428 
4406 
4383 
4357 
4312 
4257 
4202 
4444 
4436 
4421 
4397 
4372 
4342 
4286 
4202 
4060 
SCALARS P_DAY=5475 double 1
LOOKUP_TABLE default
4123 
4043 
3992 
3952 
3933 
3917 
3901 
3890 
3884 
4043 
4009 
3972 
3943 
3925 
3910 
3894 
3883 
3877 
3992 
3972 
3949 
3927 
3911 
3897 
3881 
3869 
3862 
3953 
3943 
3927 
3908 
3893 
3879 
3862 
3848 
3839 
3933 
3925 
3911 
3893 
3879 
3863 
3843 
3825 
3814 
3917 
3910 
3897 
3879 
3863 
3846 
3822 
3799 
3785 
3902 
3895 
3882 
3862 
3843 
3822 
3789 
3755 
3729 
3891 
3884 
3870 
3848 
3825 
3800 
3755 
3701 
3647 
3885 
3878 
3863 
3839 
3815 
3785 
3730 
3647 
3509 
SCALARS P_DAY=5840 double 1
LOOKUP_TABLE default
3560 
3477 
3426 
3387 
3367 
3351 
3335 
3324 
3318 
3477 
3444 
3406 
3377 
3359 
3344 
3328 
3317 
3311 
3426 
3406 
3384 
3361 
3345 
3331 
3315 
3303 
3296 
3387 
3377 
3361 
3342 
3327 
3313 
3296 
3282 
3273 
3368 
3360 
3345 
3327 
3312 
3297 
3277 
3259 
3249 
3351 
3344 
3331 
3313 
3297 
3281 
3256 
3234 
3219 
3335 
3329 
3315 
3296 
3277 
3257 
3224 
3190 
3165 
3325 
3318 
3303 
3282 
3260 
3234 
3191 
3138 
3084 
3319 
3311 
3296 
3274 
3249 
3220 
3165 
3084 
2950 
SCALARS P_DAY=6205 double 1
LOOKUP_TABLE default
2989 
2905 
2854 
2815 
2795 
2778 
2763 
2752 
2746 
2905 
2872 
2834 
2805 
2787 
2772 
2756 
2745 
2739 
2854 
2834 
2812 
2789 
2773 
2759 
2743 
2731 
2724 
2815 
2805 
2789 
2770 
2755 
2741 
2724 
2710 
2702 
2796 
2787 
2773 
2755 
2741 
2725 
2706 
2688 
2678 
2779 
2772 
2759 
2741 
2726 
2709 
2685 
2663 
2649 
2763 
2756 
2743 
2724 
2706 
2685 
2654 
2621 
2596 
2753 
2746 
2732 
2710 
2689 
2664 
2621 
2569 
2517 
2747 
2739 
2725 
2702 
2678 
2649 
2596 
2517 
2385 
SCALARS So_DAY=0 double 1
LOOKUP_TABLE default
0.88 
0.88 
0.88 
0.88 
0.88 
0.88 
0.88 
0.88 
0.88 
0.88 
0.88 
0.88 
0.88 
0.88 
0.88 
0.88 
0.88 
0.88 
0.88 
0.88 
0.88 
0.88 
0.88 
0.88 
0.88 
0.88 
0.88 
0.88 
0.88 
0.88 
0.88 
0.88 
0.88 
0.88 
0.88 
0.88 
0.88 
0.88 
0.88 
0.88 
0.88 
0.88 
0.88 
0.88 
0.88 
0.88 
0.88 
0.88 
0.88 
0.88 
0.88 
0.88 
0.88 
0.88 
0.88 
0.88 
0.88 
0.88 
0.88 
0.88 
0.88 
0.88 
0.88 
0.88 
0.88 
0.88 
0.88 
0.88 
0.88 
0.88 
0.88 
0.88 
0.88 
0.88 
0.88 
0.88 
0.88 
0.88 
0.88 
0.88 
0.88 
SCALARS So_DAY=365 double 1
LOOKUP_TABLE default
0.8187 
0.8186 
0.8184 
0.8181 
0.8179 
0.8176 
0.8172 
0.817 
0.8168 
0.8186 
0.8185 
0.8183 
0.818 
0.8177 
0.8174 
0.817 
0.8167 
0.8165 
0.8184 
0.8183 
0.818 
0.8177 
0.8174 
0.817 
0.8166 
0.8162 
0.8156 
0.8181 
0.818 
0.8177 
0.8173 
0.817 
0.8165 
0.8156 
0.8149 
0.8145 
0.8179 
0.8178 
0.8175 
0.8171 
0.8168 
0.8158 
0.8149 
0.8141 
0.8136 
0.8177 
0.8174 
0.8171 
0.8166 
0.8158 
0.8147 
0.8137 
0.8126 
0.8119 
0.8173 
0.8171 
0.8167 
0.8156 
0.8149 
0.8137 
0.8122 
0.8107 
0.8095 
0.8171 
0.8168 
0.8163 
0.815 
0.8142 
0.8127 
0.8108 
0.8086 
0.8079 
0.8169 
0.8166 
0.8158 
0.8145 
0.8136 
0.8119 
0.8096 
0.8079 
0.8145 
SCALARS So_DAY=730 double 1
LOOKUP_TABLE default
0.2985 
0.3276 
0.4108 
0.6137 
0.823 
0.8775 
0.8792 
0.8775 
0.8757 
0.3276 
0.3876 
0.5017 
0.7816 
0.8708 
0.8791 
0.8793 
0.877 
0.8755 
0.4107 
0.5015 
0.7408 
0.8707 
0.8789 
0.8793 
0.8786 
0.8763 
0.875 
0.6129 
0.7811 
0.8706 
0.879 
0.8793 
0.8793 
0.8774 
0.8757 
0.8751 
0.8223 
0.8707 
0.8788 
0.8793 
0.8793 
0.8787 
0.8769 
0.8755 
0.8752 
0.8776 
0.8791 
0.8793 
0.8793 
0.8786 
0.8773 
0.8762 
0.8758 
0.8758 
0.8792 
0.8793 
0.8784 
0.8772 
0.8767 
0.8761 
0.876 
0.8761 
0.8762 
0.8773 
0.8768 
0.8761 
0.8756 
0.8755 
0.8757 
0.8761 
0.8763 
0.8765 
0.8755 
0.8749 
0.8747 
0.875 
0.8752 
0.8757 
0.8762 
0.8765 
0.8766 
SCALARS So_DAY=1095 double 1
LOOKUP_TABLE default
0.2937 
0.3052 
0.3595 
0.4284 
0.5108 
0.7932 
0.8762 
0.8777 
0.8759 
0.3052 
0.3456 
0.3858 
0.4955 
0.6435 
0.8579 
0.879 
0.8773 
0.8758 
0.3594 
0.3858 
0.4617 
0.6642 
0.8322 
0.8776 
0.8788 
0.8766 
0.8753 
0.4282 
0.4952 
0.6639 
0.8487 
0.8766 
0.8795 
0.8777 
0.876 
0.8754 
0.51 
0.6425 
0.8319 
0.8766 
0.8793 
0.8789 
0.8772 
0.8758 
0.8755 
0.7977 
0.8591 
0.8778 
0.8795 
0.8788 
0.8775 
0.8764 
0.8761 
0.876 
0.8766 
0.8791 
0.8786 
0.8775 
0.877 
0.8764 
0.8763 
0.8764 
0.8765 
0.8775 
0.8771 
0.8764 
0.8759 
0.8757 
0.876 
0.8763 
0.8766 
0.8768 
0.8758 
0.8752 
0.875 
0.8753 
0.8755 
0.876 
0.8764 
0.8768 
0.8768 
SCALARS So_DAY=1460 double 1
LOOKUP_TABLE default
0.2889 
0.2983 
0.3369 
0.3728 
0.4073 
0.5761 
0.8263 
0.8764 
0.8762 
0.2983 
0.3269 
0.3443 
0.4063 
0.4496 
0.6748 
0.861 
0.8771 
0.8761 
0.3368 
0.3442 
0.391 
0.4702 
0.5575 
0.8158 
0.8764 
0.8768 
0.8756 
0.3726 
0.4061 
0.47 
0.6264 
0.7891 
0.8738 
0.8778 
0.8763 
0.8757 
0.4069 
0.4491 
0.5571 
0.789 
0.8656 
0.8786 
0.8774 
0.8761 
0.8758 
0.587 
0.6857 
0.8203 
0.8743 
0.8785 
0.8778 
0.8767 
0.8764 
0.8763 
0.8332 
0.8635 
0.8766 
0.8777 
0.8773 
0.8767 
0.8766 
0.8767 
0.8768 
0.8765 
0.877 
0.8767 
0.8762 
0.876 
0.8763 
0.8766 
0.8769 
0.8771 
0.8761 
0.8755 
0.8753 
0.8756 
0.8758 
0.8763 
0.8767 
0.8771 
0.8771 
SCALARS So_DAY=1825 double 1
LOOKUP_TABLE default
0.2885 
0.298 
0.3313 
0.3462 
0.3747 
0.4643 
0.6722 
0.858 
0.8759 
0.298 
0.3237 
0.3244 
0.3728 
0.3984 
0.5068 
0.7485 
0.8693 
0.876 
0.3313 
0.3244 
0.3608 
0.4086 
0.4384 
0.6013 
0.8323 
0.8751 
0.8756 
0.346 
0.3727 
0.4085 
0.4748 
0.5337 
0.7718 
0.8705 
0.8761 
0.8757 
0.3744 
0.3981 
0.4381 
0.5338 
0.6568 
0.8512 
0.876 
0.8761 
0.8758 
0.4723 
0.5171 
0.6155 
0.7813 
0.854 
0.876 
0.8767 
0.8764 
0.8764 
0.6919 
0.7651 
0.8397 
0.8716 
0.8761 
0.8766 
0.8766 
0.8767 
0.8768 
0.862 
0.8709 
0.8753 
0.876 
0.876 
0.8763 
0.8767 
0.8769 
0.8771 
0.8759 
0.8754 
0.8753 
0.8756 
0.8758 
0.8763 
0.8768 
0.8771 
0.8771 
SCALARS So_DAY=2190 double 1
LOOKUP_TABLE default
0.2882 
0.2976 
0.3287 
0.3296 
0.3523 
0.4151 
0.5408 
0.785 
0.8726 
0.2976 
0.3225 
0.3133 
0.3504 
0.3736 
0.4381 
0.5902 
0.8243 
0.8746 
0.3287 
0.3133 
0.3404 
0.3809 
0.3999 
0.4807 
0.6844 
0.8581 
0.8752 
0.3294 
0.3502 
0.3808 
0.4181 
0.4427 
0.5703 
0.8031 
0.8723 
0.8757 
0.352 
0.3734 
0.3997 
0.4424 
0.4762 
0.6634 
0.8508 
0.8749 
0.8758 
0.4204 
0.4449 
0.4902 
0.5851 
0.6815 
0.841 
0.8739 
0.8762 
0.8764 
0.5587 
0.6119 
0.7083 
0.8163 
0.856 
0.8741 
0.8763 
0.8767 
0.8768 
0.8023 
0.8357 
0.8625 
0.8732 
0.8752 
0.8762 
0.8767 
0.877 
0.8771 
0.8736 
0.8744 
0.875 
0.8756 
0.8758 
0.8764 
0.8768 
0.8771 
0.8772 
SCALARS So_DAY=2555 double 1
LOOKUP_TABLE default
0.2878 
0.2973 
0.3275 
0.319 
0.3365 
0.389 
0.4699 
0.668 
0.8572 
0.2973 
0.3219 
0.3071 
0.3347 
0.3545 
0.4043 
0.4965 
0.7176 
0.8658 
0.3275 
0.307 
0.3264 
0.3606 
0.3793 
0.4286 
0.5453 
0.7854 
0.872 
0.3188 
0.3345 
0.3605 
0.3924 
0.4062 
0.4723 
0.6383 
0.8429 
0.8748 
0.3362 
0.3543 
0.3791 
0.406 
0.4213 
0.5022 
0.7169 
0.8622 
0.8755 
0.3929 
0.4087 
0.4349 
0.4816 
0.5145 
0.6735 
0.8413 
0.874 
0.8763 
0.4825 
0.5119 
0.5663 
0.6663 
0.744 
0.8446 
0.8724 
0.8763 
0.8768 
0.695 
0.7439 
0.805 
0.8519 
0.866 
0.8744 
0.8763 
0.8769 
0.8772 
0.8624 
0.8682 
0.8729 
0.875 
0.8756 
0.8763 
0.8768 
0.8771 
0.8772 
SCALARS So_DAY=2920 double 1
LOOKUP_TABLE default
0.2875 
0.2969 
0.3269 
0.312 
0.3252 
0.3702 
0.4305 
0.5699 
0.8143 
0.2969 
0.3215 
0.3035 
0.3236 
0.3399 
0.3843 
0.4467 
0.6032 
0.8346 
0.3269 
0.3035 
0.3169 
0.345 
0.3621 
0.4019 
0.4738 
0.6602 
0.8552 
0.3119 
0.3235 
0.3449 
0.3739 
0.388 
0.4267 
0.5188 
0.7422 
0.8686 
0.325 
0.3397 
0.3619 
0.3879 
0.3986 
0.4417 
0.5487 
0.7897 
0.8725 
0.3736 
0.3877 
0.4058 
0.4328 
0.4493 
0.5234 
0.7 
0.8536 
0.8756 
0.4395 
0.4575 
0.4876 
0.5386 
0.5744 
0.7143 
0.8386 
0.8723 
0.8766 
0.594 
0.6314 
0.6923 
0.771 
0.8118 
0.8581 
0.8727 
0.8763 
0.8771 
0.8295 
0.8456 
0.8614 
0.8709 
0.8736 
0.8758 
0.8766 
0.8771 
0.8772 
SCALARS So_DAY=3285 double 1
LOOKUP_TABLE default
0.2871 
0.2965 
0.3264 
0.3075 
0.3171 
0.3555 
0.4066 
0.5074 
0.7484 
0.2965 
0.321 
0.3016 
0.3158 
0.3288 
0.3682 
0.4176 
0.5269 
0.773 
0.3264 
0.3016 
0.3105 
0.333 
0.348 
0.3849 
0.4345 
0.5578 
0.8042 
0.3074 
0.3157 
0.3329 
0.3586 
0.3722 
0.403 
0.4599 
0.6077 
0.8372 
0.3169 
0.3286 
0.3478 
0.3721 
0.3838 
0.4119 
0.4729 
0.6405 
0.8525 
0.3585 
0.3713 
0.3881 
0.4068 
0.4167 
0.4571 
0.5439 
0.7569 
0.8694 
0.4133 
0.4253 
0.4442 
0.4728 
0.4877 
0.5551 
0.7001 
0.8413 
0.8745 
0.5257 
0.5481 
0.5842 
0.6424 
0.6804 
0.7765 
0.8447 
0.87 
0.8763 
0.7718 
0.7947 
0.8234 
0.8501 
0.861 
0.8712 
0.8748 
0.8763 
0.8769 
SCALARS So_DAY=3650 double 1
LOOKUP_TABLE default
0.2867 
0.2961 
0.3258 
0.3046 
0.3114 
0.3438 
0.3908 
0.4686 
0.6826 
0.2961 
0.3204 
0.3006 
0.3104 
0.3204 
0.3551 
0.3993 
0.4805 
0.7016 
0.3258 
0.3006 
0.3062 
0.3238 
0.3365 
0.3705 
0.4109 
0.4971 
0.7276 
0.3045 
0.3103 
0.3237 
0.3459 
0.3585 
0.3879 
0.4267 
0.5207 
0.7612 
0.3113 
0.3202 
0.3363 
0.3584 
0.3696 
0.3959 
0.4341 
0.5314 
0.7787 
0.3465 
0.3578 
0.3734 
0.3909 
0.3987 
0.4221 
0.4704 
0.5943 
0.8266 
0.3961 
0.4049 
0.4179 
0.4356 
0.4441 
0.4769 
0.5408 
0.7086 
0.8574 
0.4823 
0.4959 
0.5156 
0.5446 
0.5586 
0.6198 
0.722 
0.8255 
0.8691 
0.7075 
0.728 
0.7556 
0.7889 
0.8062 
0.8404 
0.8611 
0.8697 
0.8742 
SCALARS So_DAY=4015 double 1
LOOKUP_TABLE default
0.2863 
0.2957 
0.3252 
0.3027 
0.3074 
0.3345 
0.378 
0.4432 
0.63 
0.2957 
0.3199 
0.3 
0.3065 
0.3141 
0.3442 
0.386 
0.4511 
0.6422 
0.3252 
0.3 
0.3034 
0.3168 
0.3272 
0.3581 
0.3961 
0.461 
0.6566 
0.3026 
0.3065 
0.3167 
0.3355 
0.3466 
0.3744 
0.4068 
0.473 
0.6738 
0.3072 
0.3139 
0.3271 
0.3465 
0.3569 
0.383 
0.4116 
0.4768 
0.6778 
0.3369 
0.3467 
0.3608 
0.3772 
0.3858 
0.4033 
0.4317 
0.5003 
0.715 
0.3829 
0.3909 
0.401 
0.413 
0.4183 
0.4362 
0.4677 
0.5416 
0.7608 
0.4538 
0.4627 
0.4743 
0.4886 
0.4936 
0.5155 
0.553 
0.6453 
0.8108 
0.6525 
0.6664 
0.6836 
0.705 
0.7126 
0.7436 
0.7782 
0.8165 
0.8495 
SCALARS So_DAY=4380 double 1
LOOKUP_TABLE default
0.2859 
0.2952 
0.3246 
0.3014 
0.3045 
0.3271 
0.3672 
0.4255 
0.5898 
0.2952 
0.3193 
0.2995 
0.3039 
0.3094 
0.3353 
0.3745 
0.4312 
0.5972 
0.3246 
0.2995 
0.3016 
0.3114 
0.3199 
0.3475 
0.3844 
0.4376 
0.6043 
0.3013 
0.3039 
0.3114 
0.3269 
0.3366 
0.3624 
0.3945 
0.444 
0.61 
0.3044 
0.3093 
0.3197 
0.3365 
0.3458 
0.3708 
0.3977 
0.4453 
0.6078 
0.3292 
0.3376 
0.35 
0.3651 
0.3736 
0.3914 
0.4094 
0.4552 
0.6132 
0.3718 
0.3792 
0.3892 
0.3988 
0.4021 
0.4125 
0.4293 
0.469 
0.6135 
0.4341 
0.4404 
0.4477 
0.4556 
0.4574 
0.4651 
0.4754 
0.4991 
0.6117 
0.6097 
0.6186 
0.6278 
0.6364 
0.6354 
0.6387 
0.6346 
0.6248 
0.6612 
SCALARS So_DAY=4745 double 1
LOOKUP_TABLE default
0.2888 
0.2983 
0.3286 
0.3036 
0.306 
0.3245 
0.3615 
0.4158 
0.5605 
0.2983 
0.3232 
0.3022 
0.3055 
0.3095 
0.3314 
0.368 
0.42 
0.5647 
0.3286 
0.3022 
0.3038 
0.311 
0.3175 
0.3418 
0.3774 
0.4244 
0.5671 
0.3036 
0.3055 
0.3109 
0.3233 
0.3314 
0.3551 
0.3875 
0.4278 
0.5661 
0.3059 
0.3094 
0.3174 
0.3314 
0.3394 
0.3629 
0.3912 
0.4279 
0.562 
0.3265 
0.3335 
0.3442 
0.3576 
0.3657 
0.3837 
0.3999 
0.4307 
0.5538 
0.366 
0.3726 
0.3823 
0.392 
0.3951 
0.4017 
0.4103 
0.4344 
0.5363 
0.4234 
0.428 
0.4327 
0.4367 
0.4368 
0.4381 
0.4391 
0.4483 
0.514 
0.5787 
0.5838 
0.5873 
0.5879 
0.5842 
0.5739 
0.5525 
0.5242 
0.5249 
SCALARS So_DAY=5110 double 1
LOOKUP_TABLE default
0.2919 
0.3012 
0.3313 
0.3062 
0.3079 
0.323 
0.3565 
0.4082 
0.536 
0.3012 
0.3257 
0.305 
0.3075 
0.3104 
0.3286 
0.3623 
0.4115 
0.5382 
0.3313 
0.305 
0.3063 
0.3115 
0.3164 
0.3373 
0.3711 
0.4147 
0.5384 
0.3062 
0.3075 
0.3115 
0.3211 
0.3277 
0.3489 
0.3809 
0.4169 
0.5348 
0.3079 
0.3104 
0.3164 
0.3277 
0.3344 
0.3561 
0.3846 
0.4167 
0.5302 
0.3248 
0.3306 
0.3396 
0.3513 
0.3588 
0.3764 
0.3941 
0.4173 
0.5194 
0.3609 
0.3669 
0.3761 
0.3855 
0.3889 
0.3957 
0.4015 
0.4178 
0.501 
0.4149 
0.4185 
0.422 
0.4243 
0.4239 
0.4229 
0.4214 
0.4259 
0.479 
0.5532 
0.5562 
0.5569 
0.5538 
0.5491 
0.5358 
0.514 
0.488 
0.4869 
SCALARS So_DAY=5475 double 1
LOOKUP_TABLE default
0.2951 
0.3025 
0.3331 
0.3089 
0.3102 
0.3223 
0.3523 
0.4019 
0.5153 
0.3025 
0.3274 
0.3077 
0.3098 
0.312 
0.3268 
0.3574 
0.4047 
0.5164 
0.3331 
0.3077 
0.3089 
0.3127 
0.3164 
0.334 
0.3655 
0.4073 
0.5155 
0.3089 
0.3098 
0.3127 
0.3201 
0.3253 
0.3438 
0.3748 
0.4089 
0.511 
0.3102 
0.3119 
0.3164 
0.3253 
0.3308 
0.3505 
0.3784 
0.4087 
0.5066 
0.3239 
0.3286 
0.336 
0.3461 
0.3531 
0.3698 
0.3881 
0.4089 
0.496 
0.3566 
0.3618 
0.3705 
0.3795 
0.3828 
0.3901 
0.3967 
0.4087 
0.4783 
0.4081 
0.4109 
0.4137 
0.4153 
0.4148 
0.4135 
0.4116 
0.4142 
0.4578 
0.5314 
0.5331 
0.5323 
0.5279 
0.5231 
0.5101 
0.4904 
0.4653 
0.4638 
SCALARS So_DAY=5840 double 1
LOOKUP_TABLE default
0.2984 
0.3028 
0.3343 
0.3113 
0.3127 
0.3224 
0.3489 
0.3969 
0.498 
0.3028 
0.3284 
0.3099 
0.3122 
0.314 
0.3258 
0.3532 
0.3992 
0.4984 
0.3343 
0.3099 
0.3114 
0.3145 
0.3172 
0.3316 
0.3607 
0.4014 
0.4969 
0.3113 
0.3122 
0.3145 
0.3201 
0.3241 
0.3399 
0.3694 
0.4027 
0.4923 
0.3127 
0.3139 
0.3172 
0.3241 
0.3285 
0.3459 
0.3727 
0.4024 
0.488 
0.3237 
0.3275 
0.3335 
0.342 
0.3484 
0.364 
0.3822 
0.4027 
0.4774 
0.353 
0.3575 
0.3655 
0.3741 
0.3772 
0.3843 
0.392 
0.4028 
0.4613 
0.4024 
0.4048 
0.4071 
0.4083 
0.4078 
0.4067 
0.4052 
0.4071 
0.4435 
0.5129 
0.5137 
0.5123 
0.5074 
0.5029 
0.4909 
0.4718 
0.4501 
0.4485 
SCALARS So_DAY=6205 double 1
LOOKUP_TABLE default
0.3011 
0.3032 
0.3348 
0.313 
0.3149 
0.3229 
0.3461 
0.3922 
0.4832 
0.3032 
0.3287 
0.3113 
0.3143 
0.3161 
0.3257 
0.3498 
0.3946 
0.4831 
0.3348 
0.3113 
0.3136 
0.3164 
0.3186 
0.3302 
0.3565 
0.3967 
0.4814 
0.313 
0.3143 
0.3164 
0.3207 
0.3239 
0.337 
0.3646 
0.3977 
0.4766 
0.3149 
0.3161 
0.3186 
0.3239 
0.3273 
0.3424 
0.3677 
0.3975 
0.4724 
0.3241 
0.3271 
0.3319 
0.3389 
0.3447 
0.3592 
0.3767 
0.3976 
0.4624 
0.3499 
0.3538 
0.3612 
0.3692 
0.3722 
0.3788 
0.3866 
0.3981 
0.4482 
0.3977 
0.3997 
0.4017 
0.4027 
0.4023 
0.4012 
0.4002 
0.4018 
0.4328 
0.4969 
0.4973 
0.4956 
0.4908 
0.4863 
0.4744 
0.4575 
0.4386 
0.436 
SCALARS Sw_DAY=0 double 1
LOOKUP_TABLE default
0.12 
0.12 
0.12 
0.12 
0.12 
0.12 
0.12 
0.12 
0.12 
0.12 
0.12 
0.12 
0.12 
0.12 
0.12 
0.12 
0.12 
0.12 
0.12 
0.12 
0.12 
0.12 
0.12 
0.12 
0.12 
0.12 
0.12 
0.12 
0.12 
0.12 
0.12 
0.12 
0.12 
0.12 
0.12 
0.12 
0.12 
0.12 
0.12 
0.12 
0.12 
0.12 
0.12 
0.12 
0.12 
0.12 
0.12 
0.12 
0.12 
0.12 
0.12 
0.12 
0.12 
0.12 
0.12 
0.12 
0.12 
0.12 
0.12 
0.12 
0.12 
0.12 
0.12 
0.12 
0.12 
0.12 
0.12 
0.12 
0.12 
0.12 
0.12 
0.12 
0.12 
0.12 
0.12 
0.12 
0.12 
0.12 
0.12 
0.12 
0.12 