# vtk DataFile Version 3.0
MOAB 5.4.1
ASCII
DATASET UNSTRUCTURED_GRID
POINTS 1568 double
0 0 -0
50.37 0 -0
100.74 0 -0
151.11 0 -0
201.48 0 -0
251.85 0 -0
302.22 0 -0
352.59 0 -0
402.96 0 -0
453.33 0 -0
503.7 0 -0
554.07 0 -0
604.44 0 -0
654.81 0 -0
705.18 0 -0
755.55 0 -0
805.92 0 -0
856.29 0 -0
906.66 0 -0
957.03 0 -0
1007.4 0 -0
1057.77 0 -0
1108.14 0 -0
1158.51 0 -0
1208.88 0 -0
1259.25 0 -0
1309.62 0 -0
1359.99 0 -0
0 50.37 -0
50.37 50.37 -0
100.74 50.37 -0
151.11 50.37 -0
201.48 50.37 -0
251.85 50.37 -0
302.22 50.37 -0
352.59 50.37 -0
402.96 50.37 -0
453.33 50.37 -0
503.7 50.37 -0
554.07 50.37 -0
604.44 50.37 -0
654.81 50.37 -0
705.18 50.37 -0
755.55 50.37 -0
805.92 50.37 -0
856.29 50.37 -0
906.66 50.37 -0
957.03 50.37 -0
1007.4 50.37 -0
1057.77 50.37 -0
1108.14 50.37 -0
1158.51 50.37 -0
1208.88 50.37 -0
1259.25 50.37 -0
1309.62 50.37 -0
1359.99 50.37 -0
0 100.74 -0
50.37 100.74 -0
100.74 100.74 -0
151.11 100.74 -0
201.48 100.74 -0
251.85 100.74 -0
302.22 100.74 -0
352.59 100.74 -0
402.96 100.74 -0
453.33 100.74 -0
503.7 100.74 -0
554.07 100.74 -0
604.44 100.74 -0
654.81 100.74 -0
705.18 100.74 -0
755.55 100.74 -0
805.92 100.74 -0
856.29 100.74 -0
906.66 100.74 -0
957.03 100.74 -0
1007.4 100.74 -0
1057.77 100.74 -0
1108.14 100.74 -0
1158.51 100.74 -0
1208.88 100.74 -0
1259.25 100.74 -0
1309.62 100.74 -0
1359.99 100.74 -0
0 151.11 -0
50.37 151.11 -0
100.74 151.11 -0
151.11 151.11 -0
201.48 151.11 -0
251.85 151.11 -0
302.22 151.11 -0
352.59 151.11 -0
402.96 151.11 -0
453.33 151.11 -0
503.7 151.11 -0
554.07 151.11 -0
604.44 151.11 -0
654.81 151.11 -0
705.18 151.11 -0
755.55 151.11 -0
805.92 151.11 -0
856.29 151.11 -0
906.66 151.11 -0
957.03 151.11 -0
1007.4 151.11 -0
1057.77 151.11 -0
1108.14 151.11 -0
1158.51 151.11 -0
1208.88 151.11 -0
1259.25 151.11 -0
1309.62 151.11 -0
1359.99 151.11 -0
0 201.48 -0
50.37 201.48 -0
100.74 201.48 -0
151.11 201.48 -0
201.48 201.48 -0
251.85 201.48 -0
302.22 201.48 -0
352.59 201.48 -0
402.96 201.48 -0
453.33 201.48 -0
503.7 201.48 -0
554.07 201.48 -0
604.44 201.48 -0
654.81 201.48 -0
705.18 201.48 -0
755.55 201.48 -0
805.92 201.48 -0
856.29 201.48 -0
906.66 201.48 -0
957.03 201.48 -0
1007.4 201.48 -0
1057.77 201.48 -0
1108.14 201.48 -0
1158.51 201.48 -0
1208.88 201.48 -0
1259.25 201.48 -0
1309.62 201.48 -0
1359.99 201.48 -0
0 251.85 -0
50.37 251.85 -0
100.74 251.85 -0
151.11 251.85 -0
201.48 251.85 -0
251.85 251.85 -0
302.22 251.85 -0
352.59 251.85 -0
402.96 251.85 -0
453.33 251.85 -0
503.7 251.85 -0
554.07 251.85 -0
604.44 251.85 -0
654.81 251.85 -0
705.18 251.85 -0
755.55 251.85 -0
805.92 251.85 -0
856.29 251.85 -0
906.66 251.85 -0
957.03 251.85 -0
1007.4 251.85 -0
1057.77 251.85 -0
1108.14 251.85 -0
1158.51 251.85 -0
1208.88 251.85 -0
1259.25 251.85 -0
1309.62 251.85 -0
1359.99 251.85 -0
0 302.22 -0
50.37 302.22 -0
100.74 302.22 -0
151.11 302.22 -0
201.48 302.22 -0
251.85 302.22 -0
302.22 302.22 -0
352.59 302.22 -0
402.96 302.22 -0
453.33 302.22 -0
503.7 302.22 -0
554.07 302.22 -0
604.44 302.22 -0
654.81 302.22 -0
705.18 302.22 -0
755.55 302.22 -0
805.92 302.22 -0
856.29 302.22 -0
906.66 302.22 -0
957.03 302.22 -0
1007.4 302.22 -0
1057.77 302.22 -0
1108.14 302.22 -0
1158.51 302.22 -0
1208.88 302.22 -0
1259.25 302.22 -0
1309.62 302.22 -0
1359.99 302.22 -0
0 352.59 -0
50.37 352.59 -0
100.74 352.59 -0
151.11 352.59 -0
201.48 352.59 -0
251.85 352.59 -0
302.22 352.59 -0
352.59 352.59 -0
402.96 352.59 -0
453.33 352.59 -0
503.7 352.59 -0
554.07 352.59 -0
604.44 352.59 -0
654.81 352.59 -0
705.18 352.59 -0
755.55 352.59 -0
805.92 352.59 -0
856.29 352.59 -0
906.66 352.59 -0
957.03 352.59 -0
1007.4 352.59 -0
1057.77 352.59 -0
1108.14 352.59 -0
1158.51 352.59 -0
1208.88 352.59 -0
1259.25 352.59 -0
1309.62 352.59 -0
1359.99 352.59 -0
0 402.96 -0
50.37 402.96 -0
100.74 402.96 -0
151.11 402.96 -0
201.48 402.96 -0
251.85 402.96 -0
302.22 402.96 -0
352.59 402.96 -0
402.96 402.96 -0
453.33 402.96 -0
503.7 402.96 -0
554.07 402.96 -0
604.44 402.96 -0
654.81 402.96 -0
705.18 402.96 -0
755.55 402.96 -0
805.92 402.96 -0
856.29 402.96 -0
906.66 402.96 -0
957.03 402.96 -0
1007.4 402.96 -0
1057.77 402.96 -0
1108.14 402.96 -0
1158.51 402.96 -0
1208.88 402.96 -0
1259.25 402.96 -0
1309.62 402.96 -0
1359.99 402.96 -0
0 453.33 -0
50.37 453.33 -0
100.74 453.33 -0
151.11 453.33 -0
201.48 453.33 -0
251.85 453.33 -0
302.22 453.33 -0
352.59 453.33 -0
402.96 453.33 -0
453.33 453.33 -0
503.7 453.33 -0
554.07 453.33 -0
604.44 453.33 -0
654.81 453.33 -0
705.18 453.33 -0
755.55 453.33 -0
805.92 453.33 -0
856.29 453.33 -0
906.66 453.33 -0
957.03 453.33 -0
1007.4 453.33 -0
1057.77 453.33 -0
1108.14 453.33 -0
1158.51 453.33 -0
1208.88 453.33 -0
1259.25 453.33 -0
1309.62 453.33 -0
1359.99 453.33 -0
0 503.7 -0
50.37 503.7 -0
100.74 503.7 -0
151.11 503.7 -0
201.48 503.7 -0
251.85 503.7 -0
302.22 503.7 -0
352.59 503.7 -0
402.96 503.7 -0
453.33 503.7 -0
503.7 503.7 -0
554.07 503.7 -0
604.44 503.7 -0
654.81 503.7 -0
705.18 503.7 -0
755.55 503.7 -0
805.92 503.7 -0
856.29 503.7 -0
906.66 503.7 -0
957.03 503.7 -0
1007.4 503.7 -0
1057.77 503.7 -0
1108.14 503.7 -0
1158.51 503.7 -0
1208.88 503.7 -0
1259.25 503.7 -0
1309.62 503.7 -0
1359.99 503.7 -0
0 554.07 -0
50.37 554.07 -0
100.74 554.07 -0
151.11 554.07 -0
201.48 554.07 -0
251.85 554.07 -0
302.22 554.07 -0
352.59 554.07 -0
402.96 554.07 -0
453.33 554.07 -0
503.7 554.07 -0
554.07 554.07 -0
604.44 554.07 -0
654.81 554.07 -0
705.18 554.07 -0
755.55 554.07 -0
805.92 554.07 -0
856.29 554.07 -0
906.66 554.07 -0
957.03 554.07 -0
1007.4 554.07 -0
1057.77 554.07 -0
1108.14 554.07 -0
1158.51 554.07 -0
1208.88 554.07 -0
1259.25 554.07 -0
1309.62 554.07 -0
1359.99 554.07 -0
0 604.44 -0
50.37 604.44 -0
100.74 604.44 -0
151.11 604.44 -0
201.48 604.44 -0
251.85 604.44 -0
302.22 604.44 -0
352.59 604.44 -0
402.96 604.44 -0
453.33 604.44 -0
503.7 604.44 -0
554.07 604.44 -0
604.44 604.44 -0
654.81 604.44 -0
705.18 604.44 -0
755.55 604.44 -0
805.92 604.44 -0
856.29 604.44 -0
906.66 604.44 -0
957.03 604.44 -0
1007.4 604.44 -0
1057.77 604.44 -0
1108.14 604.44 -0
1158.51 604.44 -0
1208.88 604.44 -0
1259.25 604.44 -0
1309.62 604.44 -0
1359.99 604.44 -0
0 654.81 -0
50.37 654.81 -0
100.74 654.81 -0
151.11 654.81 -0
201.48 654.81 -0
251.85 654.81 -0
302.22 654.81 -0
352.59 654.81 -0
402.96 654.81 -0
453.33 654.81 -0
503.7 654.81 -0
554.07 654.81 -0
604.44 654.81 -0
654.81 654.81 -0
705.18 654.81 -0
755.55 654.81 -0
805.92 654.81 -0
856.29 654.81 -0
906.66 654.81 -0
957.03 654.81 -0
1007.4 654.81 -0
1057.77 654.81 -0
1108.14 654.81 -0
1158.51 654.81 -0
1208.88 654.81 -0
1259.25 654.81 -0
1309.62 654.81 -0
1359.99 654.81 -0
0 705.18 -0
50.37 705.18 -0
100.74 705.18 -0
151.11 705.18 -0
201.48 705.18 -0
251.85 705.18 -0
302.22 705.18 -0
352.59 705.18 -0
402.96 705.18 -0
453.33 705.18 -0
503.7 705.18 -0
554.07 705.18 -0
604.44 705.18 -0
654.81 705.18 -0
705.18 705.18 -0
755.55 705.18 -0
805.92 705.18 -0
856.29 705.18 -0
906.66 705.18 -0
957.03 705.18 -0
1007.4 705.18 -0
1057.77 705.18 -0
1108.14 705.18 -0
1158.51 705.18 -0
1208.88 705.18 -0
1259.25 705.18 -0
1309.62 705.18 -0
1359.99 705.18 -0
0 755.55 -0
50.37 755.55 -0
100.74 755.55 -0
151.11 755.55 -0
201.48 755.55 -0
251.85 755.55 -0
302.22 755.55 -0
352.59 755.55 -0
402.96 755.55 -0
453.33 755.55 -0
503.7 755.55 -0
554.07 755.55 -0
604.44 755.55 -0
654.81 755.55 -0
705.18 755.55 -0
755.55 755.55 -0
805.92 755.55 -0
856.29 755.55 -0
906.66 755.55 -0
957.03 755.55 -0
1007.4 755.55 -0
1057.77 755.55 -0
1108.14 755.55 -0
1158.51 755.55 -0
1208.88 755.55 -0
1259.25 755.55 -0
1309.62 755.55 -0
1359.99 755.55 -0
0 805.92 -0
50.37 805.92 -0
100.74 805.92 -0
151.11 805.92 -0
201.48 805.92 -0
251.85 805.92 -0
302.22 805.92 -0
352.59 805.92 -0
402.96 805.92 -0
453.33 805.92 -0
503.7 805.92 -0
554.07 805.92 -0
604.44 805.92 -0
654.81 805.92 -0
705.18 805.92 -0
755.55 805.92 -0
805.92 805.92 -0
856.29 805.92 -0
906.66 805.92 -0
957.03 805.92 -0
1007.4 805.92 -0
1057.77 805.92 -0
1108.14 805.92 -0
1158.51 805.92 -0
1208.88 805.92 -0
1259.25 805.92 -0
1309.62 805.92 -0
1359.99 805.92 -0
0 856.29 -0
50.37 856.29 -0
100.74 856.29 -0
151.11 856.29 -0
201.48 856.29 -0
251.85 856.29 -0
302.22 856.29 -0
352.59 856.29 -0
402.96 856.29 -0
453.33 856.29 -0
503.7 856.29 -0
554.07 856.29 -0
604.44 856.29 -0
654.81 856.29 -0
705.18 856.29 -0
755.55 856.29 -0
805.92 856.29 -0
856.29 856.29 -0
906.66 856.29 -0
957.03 856.29 -0
1007.4 856.29 -0
1057.77 856.29 -0
1108.14 856.29 -0
1158.51 856.29 -0
1208.88 856.29 -0
1259.25 856.29 -0
1309.62 856.29 -0
1359.99 856.29 -0
0 906.66 -0
50.37 906.66 -0
100.74 906.66 -0
151.11 906.66 -0
201.48 906.66 -0
251.85 906.66 -0
302.22 906.66 -0
352.59 906.66 -0
402.96 906.66 -0
453.33 906.66 -0
503.7 906.66 -0
554.07 906.66 -0
604.44 906.66 -0
654.81 906.66 -0
705.18 906.66 -0
755.55 906.66 -0
805.92 906.66 -0
856.29 906.66 -0
906.66 906.66 -0
957.03 906.66 -0
1007.4 906.66 -0
1057.77 906.66 -0
1108.14 906.66 -0
1158.51 906.66 -0
1208.88 906.66 -0
1259.25 906.66 -0
1309.62 906.66 -0
1359.99 906.66 -0
0 957.03 -0
50.37 957.03 -0
100.74 957.03 -0
151.11 957.03 -0
201.48 957.03 -0
251.85 957.03 -0
302.22 957.03 -0
352.59 957.03 -0
402.96 957.03 -0
453.33 957.03 -0
503.7 957.03 -0
554.07 957.03 -0
604.44 957.03 -0
654.81 957.03 -0
705.18 957.03 -0
755.55 957.03 -0
805.92 957.03 -0
856.29 957.03 -0
906.66 957.03 -0
957.03 957.03 -0
1007.4 957.03 -0
1057.77 957.03 -0
1108.14 957.03 -0
1158.51 957.03 -0
1208.88 957.03 -0
1259.25 957.03 -0
1309.62 957.03 -0
1359.99 957.03 -0
0 1007.4 -0
50.37 1007.4 -0
100.74 1007.4 -0
151.11 1007.4 -0
201.48 1007.4 -0
251.85 1007.4 -0
302.22 1007.4 -0
352.59 1007.4 -0
402.96 1007.4 -0
453.33 1007.4 -0
503.7 1007.4 -0
554.07 1007.4 -0
604.44 1007.4 -0
654.81 1007.4 -0
705.18 1007.4 -0
755.55 1007.4 -0
805.92 1007.4 -0
856.29 1007.4 -0
906.66 1007.4 -0
957.03 1007.4 -0
1007.4 1007.4 -0
1057.77 1007.4 -0
1108.14 1007.4 -0
1158.51 1007.4 -0
1208.88 1007.4 -0
1259.25 1007.4 -0
1309.62 1007.4 -0
1359.99 1007.4 -0
0 1057.77 -0
50.37 1057.77 -0
100.74 1057.77 -0
151.11 1057.77 -0
201.48 1057.77 -0
251.85 1057.77 -0
[...]
POINT_DATA 1568
SCALARS GLOBAL_ID int 1
LOOKUP_TABLE default
-1 
-1 
-1 
-1 
-1 
-1 
-1 
-1 
-1 
-1 
-1 
-1 
-1 
-1 
-1 
-1 
-1 
-1 
-1 
-1 
-1 
-1 
-1 
-1 
-1 
-1 
-1 
-1 
-1 
-1 
-1 
-1 
-1 
-1 
-1 
-1 
-1 
-1 
-1 
-1 
-1 
-1 
-1 
-1 
-1 
-1 
-1 
-1 
-1 
-1 
-1 
-1 
-1 
-1 
-1 
-1 
-1 
-1 
-1 
-1 
-1 
-1 
-1 
-1 
-1 
-1 
-1 
-1 
-1 
-1 
-1 
-1 
-1 
-1 
-1 
-1 
-1 
-1 
-1 
-1 
-1 
-1 
-1 
-1 
-1 
-1 
-1 
-1 
-1 
-1 
-1 
-1 
-1 
-1 
-1 
-1 
-1 
-1 
-1 
-1 
-1 
-1 
-1 
-1 
-1 
-1 
-1 
-1 
-1 
-1 
-1 
-1 
-1 
-1 
-1 
-1 
-1 
-1 
-1 
-1 
-1 
-1 
-1 
-1 
-1 
-1 
-1 
-1 
-1 
-1 
-1 
-1 
-1 
-1 
-1 
-1 
-1 
-1 
-1 
-1 
-1 
-1 
-1 
-1 
-1 
-1 
-1 
-1 
-1 
-1 
-1 
-1 
-1 
-1 
-1 
-1 
-1 
-1 
-1 
-1 
-1 
-1 
-1 
-1 
-1 
-1 
-1 
-1 
-1 
-1 
-1 
-1 
-1 
-1 
-1 
-1 
-1 
-1 
-1 
-1 
-1 
-1 
-1 
-1 
-1 
-1 
-1 
-1 
-1 
-1 
-1 
-1 
-1 
-1 
-1 
-1 
-1 
-1 
-1 
-1 
-1 
-1 
-1 
-1 
-1 
-1 
-1 
-1 
-1 
-1 
-1 
-1 
-1 
-1 
-1 
-1 
-1 
-1 
-1 
-1 
-1 
-1 
-1 
-1 
-1 
-1 
-1 
-1 
-1 
-1 
-1 
-1 
-1 
-1 
-1 
-1 
-1 
-1 
-1 
-1 
-1 
-1 
-1 
-1 
-1 
-1 
-1 
-1 
-1 
-1 
-1 
-1 
-1 
-1 
-1 
-1 
-1 
-1 
-1 
-1 
-1 
-1 
-1 
-1 
-1 
-1 
-1 
-1 
-1 
-1 
-1 
-1 
-1 
-1 
-1 
-1 
-1 
-1 
-1 
-1 
-1 
-1 
-1 
-1 
-1 
-1 
-1 
-1 
-1 
-1 
-1 
-1 
-1 
-1 
-1 
-1 
-1 
-1 
-1 
-1 
-1 
-1 
-1 
-1 
-1 
-1 
-1 
-1 
-1 
-1 
-1 
-1 
-1 
-1 
-1 
-1 
-1 
-1 
-1 
-1 
-1 
-1 
-1 
-1 
-1 
-1 
-1 
-1 
-1 
-1 
-1 
-1 
-1 
-1 
-1 
-1 
-1 
-1 
-1 
-1 
-1 
-1 
-1 
-1 
-1 
-1 
-1 
-1 
-1 
-1 
-1 
-1 
-1 
-1 
-1 
-1 
-1 
-1 
-1 
-1 
-1 
-1 
-1 
-1 
-1 
-1 
-1 
-1 
-1 
-1 
-1 
-1 
-1 
-1 
-1 
-1 
-1 
-1 
-1 
-1 
-1 
-1 
-1 
-1 
-1 
-1 
-1 
-1 
-1 
-1 
-1 
-1 
-1 
-1 
-1 
-1 
-1 
-1 
-1 
-1 
-1 
-1 
-1 
-1 
-1 
-1 
-1 
-1 
-1 
-1 
-1 
-1 
-1 
-1 
-1 
-1 
-1 
-1 
-1 
-1 
-1 
-1 
-1 
-1 
-1 
-1 
-1 
-1 
-1 
-1 
-1 
-1 
-1 
-1 
-1 
-1 
-1 
-1 
-1 
-1 
-1 
-1 
-1 
-1 
-1 
-1 
-1 
-1 
-1 
-1 
-1 
-1 
-1 
-1 
-1 
-1 
-1 
-1 
-1 
-1 
-1 
-1 
-1 
-1 
-1 
-1 
-1 
-1 
-1 
-1 
-1 
-1 
-1 
-1 
-1 
-1 
-1 
-1 
-1 
-1 
-1 
-1 
-1 
-1 
-1 
-1 
-1 
-1 
-1 
-1 
-1 
-1 
-1 
-1 
-1 
-1 
-1 
-1 
-1 
-1 
-1 
-1 
-1 
-1 
-1 
-1 
-1 
-1 
-1 
-1 
-1 
-1 
-1 
-1 
-1 
-1 
-1 
-1 
-1 
-1 
-1 
-1 
-1 
-1 
-1 
-1 
-1 
-1 
-1 
-1 
-1 
-1 
-1 
-1 
-1 
-1 
-1 
-1 
-1 
-1 
-1 
-1 
-1 
-1 
-1 
-1 
-1 
-1 
-1 
-1 
-1 
-1 
-1 
-1 
-1 
-1 
-1 
-1 
-1 
-1 
-1 
-1 
-1 
-1 
-1 
-1 
-1 
-1 
-1 
-1 
-1 
-1 
-1 
-1 
-1 
-1 
-1 
-1 
-1 
-1 
-1 
-1 
-1 
-1 
-1 
-1 
-1 
-1 
-1 
-1 
-1 
-1 
-1 
-1 
-1 
-1 
-1 
-1 
-1 
-1 
-1 
-1 
-1 
-1 
-1 
-1 
-1 
-1 
-1 
-1 
-1 
-1 
-1 
-1 
-1 
-1 
-1 
-1 
-1 
-1 
-1 
-1 
-1 
-1 
-1 
-1 
-1 
-1 
-1 
-1 
-1 
-1 
-1 
-1 
-1 
-1 
-1 
-1 
-1 
-1 
-1 
-1 
-1 
-1 
-1 
-1 
-1 
-1 
-1 
-1 
-1 
-1 
-1 
-1 
-1 
-1 
-1 
-1 
-1 
-1 
-1 
-1 
-1 
-1 
-1 
-1 
-1 
-1 
-1 
-1 
-1 
-1 
-1 
-1 
-1 
-1 
-1 
-1 
-1 
-1 
-1 
-1 
-1 
-1 
-1 
-1 
-1 
-1 
-1 
-1 
-1 
-1 
-1 
-1 
-1 
-1 
-1 
-1 
-1 
-1 
-1 
-1 
-1 
-1 
-1 
-1 
-1 
-1 
-1 
-1 
-1 
-1 
-1 
-1 
-1 
-1 
-1 
-1 
-1 
-1 
-1 
-1 
-1 
-1 
-1 
-1 
-1 
-1 
-1 
-1 
-1 
-1 
-1 
-1 
-1 
-1 
-1 
-1 
-1 
-1 
-1 
-1 
-1 
-1 
-1 
-1 
-1 
-1 
-1 
-1 
-1 
-1 
-1 
-1 
-1 
-1 
-1 
-1 
-1 
-1 
-1 
-1 
-1 
-1 
-1 
-1 
-1 
-1 
-1 
-1 
-1 
-1 
-1 
-1 
-1 
-1 
-1 
-1 
-1 
-1 
-1 
-1 
-1 
-1 
-1 
-1 
-1 
-1 
-1 
-1 
-1 
-1 
-1 
-1 
-1 
-1 
-1 
-1 
-1 
-1 
-1 
-1 
-1 
-1 
-1 
-1 
-1 
-1 
-1 
-1 
-1 
-1 
-1 
-1 
-1 
-1 
-1 
-1 
-1 
-1 
-1 
-1 
-1 
-1 
-1 
-1 
-1 
-1 
-1 
-1 
-1 
-1 
-1 
-1 
-1 
-1 
-1 
-1 
-1 
-1 
-1 
-1 
-1 
-1 
-1 
-1 
-1 
-1 
-1 
-1 
-1 
-1 
-1 
-1 
-1 
-1 
-1 
-1 
-1 
-1 
-1 
-1 
-1 
-1 
-1 
-1 
-1 
-1 
-1 
-1 
-1 
-1 
-1 
-1 
-1 
-1 
-1 
-1 
-1 
-1 
-1 
-1 
-1 
-1 
-1 
-1 
-1 
-1 
-1 
-1 
-1 
-1 
-1 
-1 
-1 
-1 
-1 
-1 
-1 
-1 
-1 
-1 
-1 
-1 
-1 
-1 
-1 
-1 
-1 
-1 
-1 
-1 
-1 
-1 
-1 
-1 
-1 
-1 
-1 
-1 
-1 
-1 
-1 
-1 
-1 
-1 
-1 
-1 
-1 
-1 
-1 
-1 
-1 
-1 
-1 
-1 
-1 
-1 
-1 
-1 
-1 
-1 
-1 
-1 
-1 
-1 
-1 
-1 
-1 
-1 
-1 
-1 
-1 
-1 
-1 
-1 
-1 
-1 
-1 
-1 
-1 
-1 
-1 
-1 
-1 
-1 
-1 
-1 
-1 
-1 
-1 
-1 
-1 
-1 
-1 
-1 
-1 
-1 
-1 
-1 
-1 
-1 
-1 
-1 
-1 
-1 
-1 
-1 
-1 
-1 
-1 
-1 
-1 
-1 
-1 
-1 
-1 
-1 
-1 
-1 
-1 
-1 
-1 
-1 
-1 
-1 
-1 
-1 
-1 
-1 
-1 
-1 
-1 
-1 
-1 
-1 
-1 
-1 
-1 
-1 
-1 
-1 
-1 
-1 
-1 
-1 
-1 
-1 
-1 
-1 
-1 
-1 
-1 
-1 
-1 
-1 
-1 
-1 
-1 
-1 
-1 
-1 
-1 
-1 
-1 
-1 
-1 
-1 
-1 
-1 
-1 
-1 
-1 
-1 
-1 
-1 
-1 
-1 
-1 
-1 
-1 
-1 
-1 
-1 
-1 
-1 
-1 
-1 
-1 
-1 
-1 
-1 
-1 
-1 
-1 
-1 
-1 
-1 
-1 
-1 
-1 
-1 
-1 
-1 
-1 
-1 
-1 
-1 
-1 
-1 
-1 
-1 
-1 
-1 
-1 
-1 
-1 
-1 
-1 
-1 
-1 
-1 
-1 
-1 
-1 
-1 
-1 
-1 
-1 
-1 
-1 
-1 
-1 
-1 
-1 
-1 
-1 
-1 
-1 
-1 
-1 
-1 
-1 
-1 
-1 
-1 
-1 
-1 
-1 
-1 
-1 
-1 
-1 
-1 
-1 
-1 
-1 
-1 
-1 
-1 
-1 
-1 
-1 
-1 
-1 
-1 
-1 
-1 
-1 
-1 
-1 
-1 
-1 
-1 
-1 
-1 
-1 
-1 
-1 
-1 
-1 
-1 
-1 
-1 
-1 
-1 
-1 
-1 
-1 
-1 
-1 
-1 
-1 
-1 
-1 
-1 
-1 
-1 
-1 
-1 
-1 
-1 
-1 
-1 
-1 
-1 
-1 
-1 
-1 
-1 
-1 
-1 
-1 
-1 
-1 
-1 
-1 
-1 
-1 
-1 
-1 
-1 
-1 
-1 
-1 
-1 
-1 
-1 
-1 
-1 
-1 
-1 
-1 
-1 
-1 
-1 
-1 
-1 
-1 
-1 
-1 
-1 
-1 
-1 
-1 
-1 
-1 
-1 
-1 
-1 
-1 
-1 
-1 
-1 
-1 
-1 
-1 
-1 
-1 
-1 
-1 
-1 
-1 
-1 
-1 
-1 
-1 
-1 
-1 
-1 
-1 
-1 
-1 
-1 
-1 
-1 
-1 
-1 
-1 
-1 
-1 
-1 
-1 
-1 
-1 
-1 
-1 
-1 
-1 
-1 
-1 
-1 
-1 
-1 
-1 
-1 
-1 
-1 
-1 
-1 
-1 
-1 
-1 
-1 
-1 
-1 
-1 
-1 
-1 
-1 
-1 
-1 
-1 
-1 
-1 
-1 
-1 
-1 
-1 
-1 
-1 
-1 
-1 
-1 
-1 
-1 
-1 
-1 
-1 
-1 
-1 
-1 
-1 
-1 
-1 
-1 
-1 
-1 
-1 
-1 
-1 
-1 
-1 
-1 
-1 
-1 
-1 
-1 
-1 
-1 
-1 
-1 
-1 
-1 
-1 
-1 
-1 
-1 
-1 
-1 
-1 
-1 
-1 
-1 
-1 
-1 
-1 
-1 
-1 
-1 
-1 
-1 
-1 
-1 
-1 
-1 
-1 
-1 
-1 
-1 
-1 
-1 
-1 
-1 
-1 
-1 
-1 
-1 
-1 
-1 
-1 
-1 
-1 
-1 
-1 
-1 
-1 
-1 
-1 
-1 
-1 
-1 
-1 
-1 
-1 
-1 
-1 
-1 
-1 
-1 
-1 
-1 
-1 
-1 
-1 
-1 
-1 
-1 
-1 
-1 
-1 
-1 
-1 
-1 
-1 
-1 
-1 
-1 
-1 
-1 
-1 
-1 
-1 
-1 
-1 
-1 
-1 
-1 
-1 
-1 
-1 
-1 
-1 
-1 
-1 
-1 
-1 
-1 
-1 
-1 
-1 
-1 
-1 
-1 
-1 
-1 
-1 
-1 
-1 
-1 
-1 
-1 
-1 
-1 
-1 
-1 
-1 
-1 
-1 
-1 
-1 
-1 
-1 
-1 
-1 
-1 
-1 
-1 
-1 
-1 
-1 
-1 
-1 
-1 
-1 
-1 
-1 
-1 
-1 
-1 
-1 
-1 
-1 
-1 
-1 
-1 
-1 
-1 
-1 
-1 
-1 
-1 
-1 
-1 
-1 
-1 
-1 
-1 
-1 
-1 
-1 
-1 
-1 
-1 
-1 
-1 
-1 
-1 
-1 
-1 
-1 
-1 
-1 
-1 
-1 
-1 
-1 
-1 
-1 
-1 
-1 
-1 
-1 
-1 
-1 
-1 
-1 
-1 
-1 
-1 
-1 
-1 
-1 
-1 
-1 
-1 
-1 
-1 
-1 
-1 
-1 
-1 
-1 
-1 
-1 
-1 
-1 
-1 
-1 
-1 
-1 
-1 
-1 
-1 
-1 
-1 
-1 
-1 
-1 
-1 
-1 
-1 
-1 
-1 
-1 
-1 
-1 
-1 
-1 
-1 
-1 
-1 
-1 
-1 
-1 
-1 
-1 
-1 
CELL_DATA 729
SCALARS GLOBAL_ID int 1
LOOKUP_TABLE default
-1 
-1 
-1 
-1 
-1 
-1 
-1 
-1 
-1 
-1 
-1 
-1 
-1 
-1 
-1 
-1 
-1 
-1 
-1 
-1 
-1 
-1 
-1 
-1 
-1 
-1 
-1 
-1 
-1 
-1 
-1 
-1 
-1 
-1 
-1 
-1 
-1 
-1 
-1 
-1 
-1 
-1 
-1 
-1 
-1 
-1 
-1 
-1 
-1 
-1 
-1 
-1 
-1 
-1 
-1 
-1 
-1 
-1 
-1 
-1 
-1 
-1 
-1 
-1 
-1 
-1 
-1 
-1 
-1 
-1 
-1 
-1 
-1 
-1 
-1 
-1 
-1 
-1 
-1 
-1 
-1 
-1 
-1 
-1 
-1 
-1 
-1 
-1 
-1 
-1 
-1 
-1 
-1 
-1 
-1 
-1 
-1 
-1 
-1 
-1 
-1 
-1 
-1 
-1 
-1 
-1 
-1 
-1 
-1 
-1 
-1 
-1 
-1 
-1 
-1 
-1 
-1 
-1 
-1 
-1 
-1 
-1 
-1 
-1 
-1 
-1 
-1 
-1 
-1 
-1 
-1 
-1 
-1 
-1 
-1 
-1 
-1 
-1 
-1 
-1 
-1 
-1 
-1 
-1 
-1 
-1 
-1 
-1 
-1 
-1 
-1 
-1 
-1 
-1 
-1 
-1 
-1 
-1 
-1 
-1 
-1 
-1 
-1 
-1 
-1 
-1 
-1 
-1 
-1 
-1 
-1 
-1 
-1 
-1 
-1 
-1 
-1 
-1 
-1 
-1 
-1 
-1 
-1 
-1 
-1 
-1 
-1 
-1 
-1 
-1 
-1 
-1 
-1 
-1 
-1 
-1 
-1 
-1 
-1 
-1 
-1 
-1 
-1 
-1 
-1 
-1 
-1 
-1 
-1 
-1 
-1 
-1 
-1 
-1 
-1 
-1 
-1 
-1 
-1 
-1 
-1 
-1 
-1 
-1 
-1 
-1 
-1 
-1 
-1 
-1 
-1 
-1 
-1 
-1 
-1 
-1 
-1 
-1 
-1 
-1 
-1 
-1 
-1 
-1 
-1 
-1 
-1 
-1 
-1 
-1 
-1 
-1 
-1 
-1 
-1 
-1 
-1 
-1 
-1 
-1 
-1 
-1 
-1 
-1 
-1 
-1 
-1 
-1 
-1 
-1 
-1 
-1 
-1 
-1 
-1 
-1 
-1 
-1 
-1 
-1 
-1 
-1 
-1 
-1 
-1 
-1 
-1 
-1 
-1 
-1 
-1 
-1 
-1 
-1 
-1 
-1 
-1 
-1 
-1 
-1 
-1 
-1 
-1 
-1 
-1 
-1 
-1 
-1 
-1 
-1 
-1 
-1 
-1 
-1 
-1 
-1 
-1 
-1 
-1 
-1 
-1 
-1 
-1 
-1 
-1 
-1 
-1 
-1 
-1 
-1 
-1 
-1 
-1 
-1 
-1 
-1 
-1 
-1 
-1 
-1 
-1 
-1 
-1 
-1 
-1 
-1 
-1 
-1 
-1 
-1 
-1 
-1 
-1 
-1 
-1 
-1 
-1 
-1 
-1 
-1 
-1 
-1 
-1 
-1 
-1 
-1 
-1 
-1 
-1 
-1 
-1 
-1 
-1 
-1 
-1 
-1 
-1 
-1 
-1 
-1 
-1 
-1 
-1 
-1 
-1 
-1 
-1 
-1 
-1 
-1 
-1 
-1 
-1 
-1 
-1 
-1 
-1 
-1 
-1 
-1 
-1 
-1 
-1 
-1 
-1 
-1 
-1 
-1 
-1 
-1 
-1 
-1 
-1 
-1 
-1 
-1 
-1 
-1 
-1 
-1 
-1 
-1 
-1 
-1 
-1 
-1 
-1 
-1 
-1 
-1 
-1 
-1 
-1 
-1 
-1 
-1 
-1 
-1 
-1 
-1 
-1 
-1 
-1 
-1 
-1 
-1 
-1 
-1 
-1 
-1 
-1 
-1 
-1 
-1 
-1 
-1 
-1 
-1 
-1 
-1 
-1 
-1 
-1 
-1 
-1 
-1 
-1 
-1 
-1 
-1 
-1 
-1 
-1 
-1 
-1 
-1 
-1 
-1 
-1 
-1 
-1 
-1 
-1 
-1 
-1 
-1 
-1 
-1 
-1 
-1 
-1 
-1 
-1 
-1 
-1 
-1 
-1 
-1 
-1 
-1 
-1 
-1 
-1 
-1 
-1 
-1 
-1 
-1 
-1 
-1 
-1 
-1 
-1 
-1 
-1 
-1 
-1 
-1 
-1 
-1 
-1 
-1 
-1 
-1 
-1 
-1 
-1 
-1 
-1 
-1 
-1 
-1 
-1 
-1 
-1 
-1 
-1 
-1 
-1 
-1 
-1 
-1 
-1 
-1 
-1 
-1 
-1 
-1 
-1 
-1 
-1 
-1 
-1 
-1 
-1 
-1 
-1 
-1 
-1 
-1 
-1 
-1 
-1 
-1 
-1 
-1 
-1 
-1 
-1 
-1 
-1 
-1 
-1 
-1 
-1 
-1 
-1 
-1 
-1 
-1 
-1 
-1 
-1 
-1 
-1 
-1 
-1 
-1 
-1 
-1 
-1 
-1 
-1 
-1 
-1 
-1 
-1 
-1 
-1 
-1 
-1 
-1 
-1 
-1 
-1 
-1 
-1 
-1 
-1 
-1 
-1 
-1 
-1 
-1 
-1 
-1 
-1 
-1 
-1 
-1 
-1 
-1 
-1 
-1 
-1 
-1 
-1 
-1 
-1 
-1 
-1 
-1 
-1 
-1 
-1 
-1 
-1 
-1 
-1 
-1 
-1 
-1 
-1 
-1 
-1 
-1 
-1 
-1 
-1 
-1 
-1 
-1 
-1 
-1 
-1 
-1 
-1 
-1 
-1 
-1 
-1 
-1 
-1 
-1 
-1 
-1 
-1 
-1 
-1 
-1 
-1 
-1 
-1 
-1 
-1 
-1 
-1 
-1 
-1 
-1 
-1 
-1 
-1 
-1 
-1 
-1 
-1 
-1 
-1 
-1 
-1 
-1 
-1 
-1 
-1 
-1 
-1 
-1 
-1 
-1 
-1 
-1 
-1 
-1 
-1 
-1 
-1 
-1 
-1 
-1 
-1 
-1 
-1 
-1 
-1 
-1 
-1 
-1 
-1 
-1 
-1 
-1 
-1 
-1 
-1 
-1 
-1 
-1 
-1 
SCALARS P double 1
LOOKUP_TABLE default
3839 
3784 
3751 
3728 
3710 
3696 
3684 
3674 
3666 
3658 
3651 
3644 
3638 
3632 
3626 
3620 
3614 
3609 
3604 
3602 
3601 
3600 
3599 
3598 
3598 
3597 
3597 
3784 
3763 
3741 
3722 
3707 
3694 
3683 
3673 
3665 
3657 
3650 
3643 
3637 
3631 
3625 
3619 
3614 
3608 
3604 
3602 
3601 
3600 
3599 
3598 
3598 
3597 
3597 
3751 
3741 
3727 
3713 
3701 
3690 
3680 
3671 
3663 
3655 
3648 
3642 
3636 
3630 
3624 
3618 
3613 
3607 
3603 
3602 
3600 
3599 
3598 
3598 
3597 
3597 
3597 
3728 
3722 
3713 
3704 
3694 
3684 
3675 
3667 
3660 
3653 
3646 
3640 
3634 
3628 
3623 
3617 
3611 
3606 
3603 
3601 
3600 
3599 
3598 
3597 
3597 
3596 
3596 
3710 
3707 
3701 
3694 
3686 
3678 
3670 
3663 
3657 
3650 
3644 
3638 
3632 
3626 
3621 
3615 
3610 
3605 
3602 
3600 
3599 
3598 
3597 
3596 
3596 
3596 
3595 
3696 
3694 
3690 
3684 
3678 
3672 
3665 
3659 
3653 
3647 
3641 
3635 
3629 
3624 
3618 
3613 
3608 
3603 
3601 
3599 
3598 
3597 
3596 
3596 
3595 
3595 
3595 
3684 
3683 
3680 
3675 
3670 
3665 
3660 
3654 
3649 
3643 
3637 
3632 
3626 
3621 
3616 
3610 
3605 
3601 
3600 
3598 
3597 
3596 
3595 
3595 
3594 
3594 
3594 
3674 
3673 
3671 
3667 
3663 
3659 
3654 
3649 
3644 
3639 
3634 
3628 
3623 
3618 
3612 
3607 
3602 
3600 
3598 
3597 
3596 
3595 
3594 
3593 
3593 
3593 
3592 
3666 
3665 
3663 
3660 
3657 
3653 
3649 
3644 
3639 
3635 
3630 
3625 
3619 
3614 
3609 
3604 
3600 
3598 
3597 
3596 
3594 
3593 
3593 
3592 
3591 
3591 
3591 
3658 
3657 
3655 
3653 
3650 
3647 
3643 
3639 
3635 
3630 
3625 
3620 
3615 
3610 
3605 
3601 
3598 
3597 
3595 
3594 
3593 
3592 
3591 
3590 
3590 
3590 
3589 
3651 
3650 
3648 
3646 
3644 
3641 
3637 
3634 
3630 
3625 
3621 
3616 
3611 
3606 
3602 
3598 
3596 
3595 
3594 
3592 
3591 
3590 
3589 
3589 
3588 
3588 
3588 
3644 
3643 
3642 
3640 
3638 
3635 
3632 
3628 
3625 
3620 
3616 
3612 
3607 
3602 
3598 
3596 
3595 
3593 
3592 
3591 
3590 
3589 
3588 
3587 
3586 
3586 
3586 
3638 
3637 
3636 
3634 
3632 
3629 
3626 
3623 
3619 
3615 
3611 
3607 
3603 
3598 
3596 
3595 
3593 
3592 
3590 
3589 
3588 
3587 
3586 
3585 
3584 
3584 
3584 
3632 
3631 
3630 
3628 
3626 
3624 
3621 
3618 
3614 
3610 
3606 
3602 
3598 
3596 
3594 
3593 
3591 
3590 
3588 
3587 
3586 
3585 
3584 
3583 
3582 
3582 
3581 
3626 
3625 
3624 
3623 
3621 
3618 
3616 
3612 
3609 
3605 
3602 
3598 
3596 
3594 
3593 
3591 
3590 
3588 
3586 
3585 
3584 
3582 
3581 
3580 
3580 
3579 
3579 
3620 
3619 
3618 
3617 
3615 
3613 
3610 
3607 
3604 
3601 
3598 
3596 
3595 
3593 
3591 
3589 
3588 
3586 
3584 
3583 
3581 
3580 
3579 
3578 
3577 
3576 
3576 
3614 
3614 
3613 
3611 
3610 
3608 
3605 
3602 
3600 
3598 
3596 
3595 
3593 
3591 
3590 
3588 
3586 
3584 
3582 
3581 
3579 
3577 
3576 
3575 
3574 
3573 
3573 
3609 
3608 
3607 
3606 
3605 
3603 
3601 
3600 
3598 
3597 
3595 
3593 
3592 
3590 
3588 
3586 
3584 
3582 
3580 
3578 
3577 
3575 
3573 
3572 
3571 
3570 
3570 
3604 
3604 
3603 
3603 
3602 
3601 
3600 
3598 
3597 
3595 
3594 
3592 
3590 
3588 
3586 
3584 
3582 
3580 
3578 
3576 
3574 
3572 
3570 
3568 
3567 
3566 
3566 
3602 
3602 
3602 
3601 
3600 
3599 
3598 
3597 
3596 
3594 
3592 
3591 
3589 
3587 
3585 
3583 
3581 
3578 
3576 
3574 
3571 
3569 
3567 
3565 
3563 
3562 
3561 
3601 
3601 
3600 
3600 
3599 
3598 
3597 
3596 
3594 
3593 
3591 
3590 
3588 
3586 
3584 
3581 
3579 
3577 
3574 
3571 
3569 
3566 
3563 
3561 
3559 
3557 
3556 
3600 
3600 
3599 
3599 
3598 
3597 
3596 
3595 
3593 
3592 
3590 
3589 
3587 
3585 
3582 
3580 
3577 
3575 
3572 
3569 
3566 
3563 
3560 
3557 
3554 
3552 
3551 
3599 
3599 
3598 
3598 
3597 
3596 
3595 
3594 
3593 
3591 
3589 
3588 
3586 
3584 
3581 
3579 
3576 
3573 
3570 
3567 
3563 
3560 
3556 
3552 
3548 
3546 
3544 
3598 
3598 
3598 
3597 
3596 
3596 
3595 
3593 
3592 
3590 
3589 
3587 
3585 
3583 
3580 
3578 
3575 
3572 
3568 
3565 
3561 
3557 
3552 
3547 
3542 
3538 
3535 
3598 
3598 
3597 
3597 
3596 
3595 
3594 
3593 
3591 
3590 
3588 
3586 
3584 
3582 
3580 
3577 
3574 
3571 
3567 
3563 
3559 
3554 
3548 
3542 
3536 
3529 
3524 
3597 
3597 
3597 
3596 
3596 
3595 
3594 
3592 
3591 
3590 
3588 
3586 
3584 
3582 
3579 
3576 
3573 
3570 
3566 
3562 
3557 
3552 
3546 
3538 
3529 
3518 
3507 
3597 
3597 
3597 
3596 
3595 
3595 
3594 
3592 
3591 
3589 
3588 
3586 
3584 
3581 
3579 
3576 
3573 
3570 
3566 
3561 
3556 
3551 
3544 
3535 
3524 
3507 
3480 
SCALARS So double 1
LOOKUP_TABLE default
0.2985 
0.2987 
0.2989 
0.2991 
0.2993 
0.2996 
0.2998 
0.3002 
0.3021 
0.3075 
0.318 
0.3333 
0.352 
0.3723 
0.3931 
0.4176 
0.4715 
0.6009 
0.8098 
0.874 
0.8791 
0.8794 
0.8794 
0.8794 
0.8794 
0.8794 
0.8794 
0.2987 
0.2988 
0.299 
0.2992 
0.2994 
0.2996 
0.2999 
0.3004 
0.3026 
0.3088 
0.32 
0.3359 
0.3547 
0.3748 
0.3952 
0.4205 
0.4778 
0.6162 
0.8202 
0.875 
0.8792 
0.8794 
0.8794 
0.8794 
0.8794 
0.8794 
0.8794 
0.2989 
0.299 
0.2991 
0.2993 
0.2995 
0.2997 
0.3 
0.3007 
0.3038 
0.3111 
0.3234 
0.3397 
0.3586 
0.3784 
0.3981 
0.4254 
0.4883 
0.6434 
0.8355 
0.8764 
0.8792 
0.8794 
0.8794 
0.8794 
0.8794 
0.8794 
0.8794 
0.2991 
0.2992 
0.2993 
0.2994 
0.2996 
0.2998 
0.3001 
0.3015 
0.3058 
0.3147 
0.3281 
0.345 
0.3638 
0.383 
0.4019 
0.4329 
0.5051 
0.6846 
0.8515 
0.8777 
0.8793 
0.8794 
0.8794 
0.8794 
0.8794 
0.8794 
0.8794 
0.2993 
0.2994 
0.2995 
0.2996 
0.2998 
0.3 
0.3006 
0.3031 
0.3093 
0.32 
0.3346 
0.3517 
0.37 
0.3884 
0.4072 
0.4442 
0.5322 
0.7392 
0.8644 
0.8786 
0.8793 
0.8794 
0.8794 
0.8794 
0.8794 
0.8794 
0.8794 
0.2996 
0.2996 
0.2997 
0.2998 
0.3 
0.3004 
0.3021 
0.3066 
0.3149 
0.3273 
0.3426 
0.3596 
0.3772 
0.3945 
0.4147 
0.4611 
0.5768 
0.7972 
0.8729 
0.8791 
0.8793 
0.8794 
0.8794 
0.8794 
0.8794 
0.8794 
0.8794 
0.2998 
0.2999 
0.3 
0.3001 
0.3006 
0.3021 
0.3057 
0.3126 
0.323 
0.3366 
0.3521 
0.3686 
0.3851 
0.4009 
0.4264 
0.4876 
0.6501 
0.8427 
0.8772 
0.8793 
0.8794 
0.8794 
0.8794 
0.8794 
0.8794 
0.8794 
0.8794 
0.3002 
0.3004 
0.3007 
0.3015 
0.3031 
0.3066 
0.3126 
0.3216 
0.3336 
0.3475 
0.3627 
0.3782 
0.3932 
0.4094 
0.4454 
0.5333 
0.7495 
0.8671 
0.8787 
0.8793 
0.8794 
0.8794 
0.8794 
0.8794 
0.8794 
0.8794 
0.8794 
0.3021 
0.3026 
0.3038 
0.3058 
0.3093 
0.3149 
0.323 
0.3336 
0.346 
0.3597 
0.374 
0.388 
0.4014 
0.4237 
0.4774 
0.6209 
0.8315 
0.8764 
0.8792 
0.8794 
0.8794 
0.8794 
0.8794 
0.8794 
0.8794 
0.8794 
0.8794 
0.3075 
0.3088 
0.3111 
0.3147 
0.32 
0.3273 
0.3366 
0.3475 
0.3597 
0.3725 
0.3854 
0.3977 
0.4132 
0.4496 
0.5382 
0.756 
0.8681 
0.8788 
0.8793 
0.8794 
0.8794 
0.8794 
0.8794 
0.8794 
0.8794 
0.8794 
0.8794 
0.318 
0.32 
0.3234 
0.3281 
0.3345 
0.3426 
0.3521 
0.3627 
0.374 
0.3854 
0.3965 
0.4089 
0.4363 
0.4989 
0.6691 
0.8491 
0.8775 
0.8793 
0.8794 
0.8794 
0.8794 
0.8794 
0.8794 
0.8794 
0.8794 
0.8794 
0.8794 
0.3333 
0.3358 
0.3397 
0.345 
0.3517 
0.3596 
0.3686 
0.3782 
0.388 
0.3977 
0.4089 
0.4324 
0.4833 
0.6138 
0.8215 
0.875 
0.8791 
0.8793 
0.8794 
0.8794 
0.8794 
0.8794 
0.8794 
0.8794 
0.8794 
0.8794 
0.8794 
0.352 
0.3547 
0.3586 
0.3637 
0.37 
0.3772 
0.3851 
0.3932 
0.4014 
0.4132 
0.4363 
0.4833 
0.5967 
0.8002 
0.872 
0.8789 
0.8793 
0.8794 
0.8794 
0.8794 
0.8794 
0.8794 
0.8794 
0.8794 
0.8794 
0.8794 
0.8794 
0.3723 
0.3748 
0.3784 
0.383 
0.3884 
0.3945 
0.4009 
0.4094 
0.4237 
0.4496 
0.4988 
0.6138 
0.8001 
0.8706 
0.8787 
0.8793 
0.8794 
0.8794 
0.8794 
0.8794 
0.8794 
0.8794 
0.8794 
0.8794 
0.8794 
0.8794 
0.8794 
0.3931 
0.3952 
0.3981 
0.4019 
0.4072 
0.4147 
0.4264 
0.4454 
0.4773 
0.5381 
0.6691 
0.8215 
0.872 
0.8787 
0.8793 
0.8794 
0.8794 
0.8794 
0.8794 
0.8794 
0.8794 
0.8794 
0.8794 
0.8794 
0.8794 
0.8794 
0.8794 
0.4176 
0.4205 
0.4254 
0.4329 
0.4441 
0.4611 
0.4876 
0.5332 
0.6208 
0.7559 
0.8491 
0.875 
0.8789 
0.8793 
0.8794 
0.8794 
0.8794 
0.8794 
0.8794 
0.8794 
0.8794 
0.8794 
0.8794 
0.8794 
0.8794 
0.8794 
0.8794 
0.4715 
0.4777 
0.4883 
0.505 
0.5321 
0.5767 
0.65 
0.7494 
0.8314 
0.8681 
0.8775 
0.8791 
0.8793 
0.8794 
0.8794 
0.8794 
0.8794 
0.8794 
0.8794 
0.8794 
0.8794 
0.8794 
0.8794 
0.8794 
0.8794 
0.8794 
0.8794 
0.6007 
0.616 
0.6432 
0.6845 
0.739 
0.7971 
0.8427 
0.8671 
0.8763 
0.8788 
0.8793 
0.8793 
0.8794 
0.8794 
0.8794 
0.8794 
0.8794 
0.8794 
0.8794 
0.8794 
0.8794 
0.8794 
0.8794 
0.8794 
0.8794 
0.8794 
0.8794 
0.8139 
0.8237 
0.8381 
0.8533 
0.8654 
0.8733 
0.8773 
0.8788 
0.8792 
0.8793 
0.8794 
0.8794 
0.8794 
0.8794 
0.8794 
0.8794 
0.8794 
0.8794 
0.8794 
0.8794 
0.8794 
0.8794 
0.8794 
0.8794 
0.8794 
0.8794 
0.8794 
0.8747 
0.8756 
0.8768 
0.8779 
0.8787 
0.8791 
0.8793 
0.8793 
0.8794 
0.8794 
0.8794 
0.8794 
0.8794 
0.8794 
0.8794 
0.8794 
0.8794 
0.8794 
0.8794 
0.8794 
0.8794 
0.8794 
0.8794 
0.8794 
0.8794 
0.8794 
0.8794 
0.8791 
0.8792 
0.8793 
0.8793 
0.8793 
0.8794 
0.8794 
0.8794 
0.8794 
0.8794 
0.8794 
0.8794 
0.8794 
0.8794 
0.8794 
0.8794 
0.8794 
0.8794 
0.8794 
0.8794 
0.8794 
0.8794 
0.8794 
0.8794 
0.8794 
0.8794 
0.8794 
0.8794 
0.8794 
0.8794 
0.8794 
0.8794 
0.8794 
0.8794 
0.8794 
0.8794 
0.8794 
0.8794 
0.8794 
0.8794 
0.8794 
0.8794 
0.8794 
0.8794 
0.8794 
0.8794 
0.8794 
0.8794 
0.8794 
0.8794 
0.8794 
0.8794 
0.8794 
0.8794 
0.8794 
0.8794 
0.8794 
0.8794 
0.8794 
0.8794 
0.8794 
0.8794 
0.8794 
0.8794 
0.8794 
0.8794 
0.8794 
0.8794 
0.8794 
0.8794 
0.8794 
0.8794 
0.8794 
0.8794 
0.8794 
0.8794 
0.8794 
0.8794 
0.8794 
0.8794 
0.8794 
0.8794 
0.8794 
0.8794 
0.8794 
0.8794 
0.8794 
0.8794 
0.8794 
0.8794 
0.8794 
0.8794 
0.8794 
0.8794 
0.8794 
0.8794 
0.8794 
0.8794 
0.8794 
0.8794 
0.8794 
0.8794 
0.8794 
0.8794 
0.8794 
0.8794 
0.8793 
0.8793 
0.8794 
0.8794 
0.8794 
0.8794 
0.8794 
0.8794 
0.8794 
0.8794 
0.8794 
0.8794 
0.8794 
0.8794 
0.8794 
0.8794 
0.8794 
0.8794 
0.8794 
0.8794 
0.8794 
0.8794 
0.8794 
0.8794 
0.8794 
0.8794 
0.8793 
0.8793 
0.8793 
0.8794 
0.8794 
0.8794 
0.8794 
0.8794 
0.8794 
0.8794 
0.8794 
0.8794 
0.8794 
0.8794 
0.8794 
0.8794 
0.8794 
0.8794 
0.8794 
0.8794 
0.8794 
0.8794 
0.8794 
0.8794 
0.8794 
0.8794 
0.8793 
0.8793 
0.8793 
0.8793 
0.8794 
0.8794 
0.8794 
0.8794 
0.8794 
0.8794 
0.8794 
0.8794 
0.8794 
0.8794 
0.8794 
0.8794 
0.8794 
0.8794 
0.8794 
0.8794 
0.8794 
0.8794 
0.8794 
0.8794 
0.8794 
0.8794 
0.8794 
0.8793 
0.8793 
0.8793 
0.8793 
SCALARS Sw double 1
LOOKUP_TABLE default
0.7015 
0.7013 
0.7011 
0.7009 
0.7007 
0.7004 
0.7002 
0.6998 
0.6979 
0.6925 
0.682 
0.6667 
0.648 
0.6277 
0.6069 
0.5824 
0.5285 
0.3991 
0.1902 
0.126 
0.1209 
0.1206 
0.1206 
0.1206 
0.1206 
0.1206 
0.1206 
0.7013 
0.7012 
0.701 
0.7008 
0.7006 
0.7004 
0.7001 
0.6996 
0.6974 
0.6912 
0.68 
0.6641 
0.6453 
0.6252 
0.6048 
0.5795 
0.5222 
0.3838 
0.1798 
0.125 
0.1208 
0.1206 
0.1206 
0.1206 
0.1206 
0.1206 