# vtk DataFile Version 3.0
MOAB 5.4.1
ASCII
DATASET UNSTRUCTURED_GRID
POINTS 1568 double
0 0 -0
50.37 0 -0
100.74 0 -0
151.11 0 -0
201.48 0 -0
251.85 0 -0
302.22 0 -0
352.59 0 -0
402.96 0 -0
453.33 0 -0
503.7 0 -0
554.07 0 -0
604.44 0 -0
654.81 0 -0
705.18 0 -0
755.55 0 -0
805.92 0 -0
856.29 0 -0
906.66 0 -0
957.03 0 -0
1007.4 0 -0
1057.77 0 -0
1108.14 0 -0
1158.51 0 -0
1208.88 0 -0
1259.25 0 -0
1309.62 0 -0
1359.99 0 -0
0 50.37 -0
50.37 50.37 -0
100.74 50.37 -0
151.11 50.37 -0
201.48 50.37 -0
251.85 50.37 -0
302.22 50.37 -0
352.59 50.37 -0
402.96 50.37 -0
453.33 50.37 -0
503.7 50.37 -0
554.07 50.37 -0
604.44 50.37 -0
654.81 50.37 -0
705.18 50.37 -0
755.55 50.37 -0
805.92 50.37 -0
856.29 50.37 -0
906.66 50.37 -0
957.03 50.37 -0
1007.4 50.37 -0
1057.77 50.37 -0
1108.14 50.37 -0
1158.51 50.37 -0
1208.88 50.37 -0
1259.25 50.37 -0
1309.62 50.37 -0
1359.99 50.37 -0
0 100.74 -0
50.37 100.74 -0
100.74 100.74 -0
151.11 100.74 -0
201.48 100.74 -0
251.85 100.74 -0
302.22 100.74 -0
352.59 100.74 -0
402.96 100.74 -0
453.33 100.74 -0
503.7 100.74 -0
554.07 100.74 -0
604.44 100.74 -0
654.81 100.74 -0
705.18 100.74 -0
755.55 100.74 -0
805.92 100.74 -0
856.29 100.74 -0
906.66 100.74 -0
957.03 100.74 -0
1007.4 100.74 -0
1057.77 100.74 -0
1108.14 100.74 -0
1158.51 100.74 -0
1208.88 100.74 -0
1259.25 100.74 -0
1309.62 100.74 -0
1359.99 100.74 -0
0 151.11 -0
50.37 151.11 -0
100.74 151.11 -0
151.11 151.11 -0
201.48 151.11 -0
251.85 151.11 -0
302.22 151.11 -0
352.59 151.11 -0
402.96 151.11 -0
453.33 151.11 -0
503.7 151.11 -0
554.07 151.11 -0
604.44 151.11 -0
654.81 151.11 -0
705.18 151.11 -0
755.55 151.11 -0
805.92 151.11 -0
856.29 151.11 -0
906.66 151.11 -0
957.03 151.11 -0
1007.4 151.11 -0
1057.77 151.11 -0
1108.14 151.11 -0
1158.51 151.11 -0
1208.88 151.11 -0
1259.25 151.11 -0
1309.62 151.11 -0
1359.99 151.11 -0
0 201.48 -0
50.37 201.48 -0
100.74 201.48 -0
151.11 201.48 -0
201.48 201.48 -0
251.85 201.48 -0
302.22 201.48 -0
352.59 201.48 -0
402.96 201.48 -0
453.33 201.48 -0
503.7 201.48 -0
554.07 201.48 -0
604.44 201.48 -0
654.81 201.48 -0
705.18 201.48 -0
755.55 201.48 -0
805.92 201.48 -0
856.29 201.48 -0
906.66 201.48 -0
957.03 201.48 -0
1007.4 201.48 -0
1057.77 201.48 -0
1108.14 201.48 -0
1158.51 201.48 -0
1208.88 201.48 -0
1259.25 201.48 -0
1309.62 201.48 -0
1359.99 201.48 -0
0 251.85 -0
50.37 251.85 -0
100.74 251.85 -0
151.11 251.85 -0
201.48 251.85 -0
251.85 251.85 -0
302.22 251.85 -0
352.59 251.85 -0
402.96 251.85 -0
453.33 251.85 -0
503.7 251.85 -0
554.07 251.85 -0
604.44 251.85 -0
654.81 251.85 -0
705.18 251.85 -0
755.55 251.85 -0
805.92 251.85 -0
856.29 251.85 -0
906.66 251.85 -0
957.03 251.85 -0
1007.4 251.85 -0
1057.77 251.85 -0
1108.14 251.85 -0
1158.51 251.85 -0
1208.88 251.85 -0
1259.25 251.85 -0
1309.62 251.85 -0
1359.99 251.85 -0
0 302.22 -0
50.37 302.22 -0
100.74 302.22 -0
151.11 302.22 -0
201.48 302.22 -0
251.85 302.22 -0
302.22 302.22 -0
352.59 302.22 -0
402.96 302.22 -0
453.33 302.22 -0
503.7 302.22 -0
554.07 302.22 -0
604.44 302.22 -0
654.81 302.22 -0
705.18 302.22 -0
755.55 302.22 -0
805.92 302.22 -0
856.29 302.22 -0
906.66 302.22 -0
957.03 302.22 -0
1007.4 302.22 -0
1057.77 302.22 -0
1108.14 302.22 -0
1158.51 302.22 -0
1208.88 302.22 -0
1259.25 302.22 -0
1309.62 302.22 -0
1359.99 302.22 -0
0 352.59 -0
50.37 352.59 -0
100.74 352.59 -0
151.11 352.59 -0
201.48 352.59 -0
251.85 352.59 -0
302.22 352.59 -0
352.59 352.59 -0
402.96 352.59 -0
453.33 352.59 -0
503.7 352.59 -0
554.07 352.59 -0
604.44 352.59 -0
654.81 352.59 -0
705.18 352.59 -0
755.55 352.59 -0
805.92 352.59 -0
856.29 352.59 -0
906.66 352.59 -0
957.03 352.59 -0
1007.4 352.59 -0
1057.77 352.59 -0
1108.14 352.59 -0
1158.51 352.59 -0
1208.88 352.59 -0
1259.25 352.59 -0
1309.62 352.59 -0
1359.99 352.59 -0
0 402.96 -0
50.37 402.96 -0
100.74 402.96 -0
151.11 402.96 -0
201.48 402.96 -0
251.85 402.96 -0
302.22 402.96 -0
352.59 402.96 -0
402.96 402.96 -0
453.33 402.96 -0
503.7 402.96 -0
554.07 402.96 -0
604.44 402.96 -0
654.81 402.96 -0
705.18 402.96 -0
755.55 402.96 -0
805.92 402.96 -0
856.29 402.96 -0
906.66 402.96 -0
957.03 402.96 -0
1007.4 402.96 -0
1057.77 402.96 -0
1108.14 402.96 -0
1158.51 402.96 -0
1208.88 402.96 -0
1259.25 402.96 -0
1309.62 402.96 -0
1359.99 402.96 -0
0 453.33 -0
50.37 453.33 -0
100.74 453.33 -0
151.11 453.33 -0
201.48 453.33 -0
251.85 453.33 -0
302.22 453.33 -0
352.59 453.33 -0
402.96 453.33 -0
453.33 453.33 -0
503.7 453.33 -0
554.07 453.33 -0
604.44 453.33 -0
654.81 453.33 -0
705.18 453.33 -0
755.55 453.33 -0
805.92 453.33 -0
856.29 453.33 -0
906.66 453.33 -0
957.03 453.33 -0
1007.4 453.33 -0
1057.77 453.33 -0
1108.14 453.33 -0
1158.51 453.33 -0
1208.88 453.33 -0
1259.25 453.33 -0
1309.62 453.33 -0
1359.99 453.33 -0
0 503.7 -0
50.37 503.7 -0
100.74 503.7 -0
151.11 503.7 -0
201.48 503.7 -0
251.85 503.7 -0
302.22 503.7 -0
352.59 503.7 -0
402.96 503.7 -0
453.33 503.7 -0
503.7 503.7 -0
554.07 503.7 -0
604.44 503.7 -0
654.81 503.7 -0
705.18 503.7 -0
755.55 503.7 -0
805.92 503.7 -0
856.29 503.7 -0
906.66 503.7 -0
957.03 503.7 -0
1007.4 503.7 -0
1057.77 503.7 -0
1108.14 503.7 -0
1158.51 503.7 -0
1208.88 503.7 -0
1259.25 503.7 -0
1309.62 503.7 -0
1359.99 503.7 -0
0 554.07 -0
50.37 554.07 -0
100.74 554.07 -0
151.11 554.07 -0
201.48 554.07 -0
251.85 554.07 -0
302.22 554.07 -0
352.59 554.07 -0
402.96 554.07 -0
453.33 554.07 -0
503.7 554.07 -0
554.07 554.07 -0
604.44 554.07 -0
654.81 554.07 -0
705.18 554.07 -0
755.55 554.07 -0
805.92 554.07 -0
856.29 554.07 -0
906.66 554.07 -0
957.03 554.07 -0
1007.4 554.07 -0
1057.77 554.07 -0
1108.14 554.07 -0
1158.51 554.07 -0
1208.88 554.07 -0
1259.25 554.07 -0
1309.62 554.07 -0
1359.99 554.07 -0
0 604.44 -0
50.37 604.44 -0
100.74 604.44 -0
151.11 604.44 -0
201.48 604.44 -0
251.85 604.44 -0
302.22 604.44 -0
352.59 604.44 -0
402.96 604.44 -0
453.33 604.44 -0
503.7 604.44 -0
554.07 604.44 -0
604.44 604.44 -0
654.81 604.44 -0
705.18 604.44 -0
755.55 604.44 -0
805.92 604.44 -0
856.29 604.44 -0
906.66 604.44 -0
957.03 604.44 -0
1007.4 604.44 -0
1057.77 604.44 -0
1108.14 604.44 -0
1158.51 604.44 -0
1208.88 604.44 -0
1259.25 604.44 -0
1309.62 604.44 -0
1359.99 604.44 -0
0 654.81 -0
50.37 654.81 -0
100.74 654.81 -0
151.11 654.81 -0
201.48 654.81 -0
251.85 654.81 -0
302.22 654.81 -0
352.59 654.81 -0
402.96 654.81 -0
453.33 654.81 -0
503.7 654.81 -0
554.07 654.81 -0
604.44 654.81 -0
654.81 654.81 -0
705.18 654.81 -0
755.55 654.81 -0
805.92 654.81 -0
856.29 654.81 -0
906.66 654.81 -0
957.03 654.81 -0
1007.4 654.81 -0
1057.77 654.81 -0
1108.14 654.81 -0
1158.51 654.81 -0
1208.88 654.81 -0
1259.25 654.81 -0
1309.62 654.81 -0
1359.99 654.81 -0
0 705.18 -0
50.37 705.18 -0
100.74 705.18 -0
151.11 705.18 -0
201.48 705.18 -0
251.85 705.18 -0
302.22 705.18 -0
352.59 705.18 -0
402.96 705.18 -0
453.33 705.18 -0
503.7 705.18 -0
554.07 705.18 -0
604.44 705.18 -0
654.81 705.18 -0
705.18 705.18 -0
755.55 705.18 -0
805.92 705.18 -0
856.29 705.18 -0
906.66 705.18 -0
957.03 705.18 -0
1007.4 705.18 -0
1057.77 705.18 -0
1108.14 705.18 -0
1158.51 705.18 -0
1208.88 705.18 -0
1259.25 705.18 -0
1309.62 705.18 -0
1359.99 705.18 -0
0 755.55 -0
50.37 755.55 -0
100.74 755.55 -0
151.11 755.55 -0
201.48 755.55 -0
251.85 755.55 -0
302.22 755.55 -0
352.59 755.55 -0
402.96 755.55 -0
453.33 755.55 -0
503.7 755.55 -0
554.07 755.55 -0
604.44 755.55 -0
654.81 755.55 -0
705.18 755.55 -0
755.55 755.55 -0
805.92 755.55 -0
856.29 755.55 -0
906.66 755.55 -0
957.03 755.55 -0
1007.4 755.55 -0
1057.77 755.55 -0
1108.14 755.55 -0
1158.51 755.55 -0
1208.88 755.55 -0
1259.25 755.55 -0
1309.62 755.55 -0
1359.99 755.55 -0
0 805.92 -0
50.37 805.92 -0
100.74 805.92 -0
151.11 805.92 -0
201.48 805.92 -0
251.85 805.92 -0
302.22 805.92 -0
352.59 805.92 -0
402.96 805.92 -0
453.33 805.92 -0
503.7 805.92 -0
554.07 805.92 -0
604.44 805.92 -0
654.81 805.92 -0
705.18 805.92 -0
755.55 805.92 -0
805.92 805.92 -0
856.29 805.92 -0
906.66 805.92 -0
957.03 805.92 -0
1007.4 805.92 -0
1057.77 805.92 -0
1108.14 805.92 -0
1158.51 805.92 -0
1208.88 805.92 -0
1259.25 805.92 -0
1309.62 805.92 -0
1359.99 805.92 -0
0 856.29 -0
50.37 856.29 -0
100.74 856.29 -0
151.11 856.29 -0
201.48 856.29 -0
251.85 856.29 -0
302.22 856.29 -0
352.59 856.29 -0
402.96 856.29 -0
453.33 856.29 -0
503.7 856.29 -0
554.07 856.29 -0
604.44 856.29 -0
654.81 856.29 -0
705.18 856.29 -0
755.55 856.29 -0
805.92 856.29 -0
856.29 856.29 -0
906.66 856.29 -0
957.03 856.29 -0
1007.4 856.29 -0
1057.77 856.29 -0
1108.14 856.29 -0
1158.51 856.29 -0
1208.88 856.29 -0
1259.25 856.29 -0
1309.62 856.29 -0
1359.99 856.29 -0
0 906.66 -0
50.37 906.66 -0
100.74 906.66 -0
151.11 906.66 -0
201.48 906.66 -0
251.85 906.66 -0
302.22 906.66 -0
352.59 906.66 -0
402.96 906.66 -0
453.33 906.66 -0
503.7 906.66 -0
554.07 906.66 -0
604.44 906.66 -0
654.81 906.66 -0
705.18 906.66 -0
755.55 906.66 -0
805.92 906.66 -0
856.29 906.66 -0
906.66 906.66 -0
957.03 906.66 -0
1007.4 906.66 -0
1057.77 906.66 -0
1108.14 906.66 -0
1158.51 906.66 -0
1208.88 906.66 -0
1259.25 906.66 -0
1309.62 906.66 -0
1359.99 906.66 -0
0 957.03 -0
50.37 957.03 -0
100.74 957.03 -0
151.11 957.03 -0
201.48 957.03 -0
251.85 957.03 -0
302.22 957.03 -0
352.59 957.03 -0
402.96 957.03 -0
453.33 957.03 -0
503.7 957.03 -0
554.07 957.03 -0
604.44 957.03 -0
654.81 957.03 -0
705.18 957.03 -0
755.55 957.03 -0
805.92 957.03 -0
856.29 957.03 -0
906.66 957.03 -0
957.03 957.03 -0
1007.4 957.03 -0
1057.77 957.03 -0
1108.14 957.03 -0
1158.51 957.03 -0
1208.88 957.03 -0
1259.25 957.03 -0
1309.62 957.03 -0
1359.99 957.03 -0
0 1007.4 -0
50.37 1007.4 -0
100.74 1007.4 -0
151.11 1007.4 -0
201.48 1007.4 -0
251.85 1007.4 -0
302.22 1007.4 -0
352.59 1007.4 -0
402.96 1007.4 -0
453.33 1007.4 -0
503.7 1007.4 -0
554.07 1007.4 -0
604.44 1007.4 -0
654.81 1007.4 -0
705.18 1007.4 -0
755.55 1007.4 -0
805.92 1007.4 -0
856.29 1007.4 -0
906.66 1007.4 -0
957.03 1007.4 -0
1007.4 1007.4 -0
1057.77 1007.4 -0
1108.14 1007.4 -0
1158.51 1007.4 -0
1208.88 1007.4 -0
1259.25 1007.4 -0
1309.62 1007.4 -0
1359.99 1007.4 -0
0 1057.77 -0
50.37 1057.77 -0
100.74 1057.77 -0
151.11 1057.77 -0
201.48 1057.77 -0
251.85 1057.77 -0
[...]
POINT_DATA 1568
SCALARS GLOBAL_ID int 1
LOOKUP_TABLE default
-1 
-1 
-1 
-1 
-1 
-1 
-1 
-1 
-1 
-1 
-1 
-1 
-1 
-1 
-1 
-1 
-1 
-1 
-1 
-1 
-1 
-1 
-1 
-1 
-1 
-1 
-1 
-1 
-1 
-1 
-1 
-1 
-1 
-1 
-1 
-1 
-1 
-1 
-1 
-1 
-1 
-1 
-1 
-1 
-1 
-1 
-1 
-1 
-1 
-1 
-1 
-1 
-1 
-1 
-1 
-1 
-1 
-1 
-1 
-1 
-1 
-1 
-1 
-1 
-1 
-1 
-1 
-1 
-1 
-1 
-1 
-1 
-1 
-1 
-1 
-1 
-1 
-1 
-1 
-1 
-1 
-1 
-1 
-1 
-1 
-1 
-1 
-1 
-1 
-1 
-1 
-1 
-1 
-1 
-1 
-1 
-1 
-1 
-1 
-1 
-1 
-1 
-1 
-1 
-1 
-1 
-1 
-1 
-1 
-1 
-1 
-1 
-1 
-1 
-1 
-1 
-1 
-1 
-1 
-1 
-1 
-1 
-1 
-1 
-1 
-1 
-1 
-1 
-1 
-1 
-1 
-1 
-1 
-1 
-1 
-1 
-1 
-1 
-1 
-1 
-1 
-1 
-1 
-1 
-1 
-1 
-1 
-1 
-1 
-1 
-1 
-1 
-1 
-1 
-1 
-1 
-1 
-1 
-1 
-1 
-1 
-1 
-1 
-1 
-1 
-1 
-1 
-1 
-1 
-1 
-1 
-1 
-1 
-1 
-1 
-1 
-1 
-1 
-1 
-1 
-1 
-1 
-1 
-1 
-1 
-1 
-1 
-1 
-1 
-1 
-1 
-1 
-1 
-1 
-1 
-1 
-1 
-1 
-1 
-1 
-1 
-1 
-1 
-1 
-1 
-1 
-1 
-1 
-1 
-1 
-1 
-1 
-1 
-1 
-1 
-1 
-1 
-1 
-1 
-1 
-1 
-1 
-1 
-1 
-1 
-1 
-1 
-1 
-1 
-1 
-1 
-1 
-1 
-1 
-1 
-1 
-1 
-1 
-1 
-1 
-1 
-1 
-1 
-1 
-1 
-1 
-1 
-1 
-1 
-1 
-1 
-1 
-1 
-1 
-1 
-1 
-1 
-1 
-1 
-1 
-1 
-1 
-1 
-1 
-1 
-1 
-1 
-1 
-1 
-1 
-1 
-1 
-1 
-1 
-1 
-1 
-1 
-1 
-1 
-1 
-1 
-1 
-1 
-1 
-1 
-1 
-1 
-1 
-1 
-1 
-1 
-1 
-1 
-1 
-1 
-1 
-1 
-1 
-1 
-1 
-1 
-1 
-1 
-1 
-1 
-1 
-1 
-1 
-1 
-1 
-1 
-1 
-1 
-1 
-1 
-1 
-1 
-1 
-1 
-1 
-1 
-1 
-1 
-1 
-1 
-1 
-1 
-1 
-1 
-1 
-1 
-1 
-1 
-1 
-1 
-1 
-1 
-1 
-1 
-1 
-1 
-1 
-1 
-1 
-1 
-1 
-1 
-1 
-1 
-1 
-1 
-1 
-1 
-1 
-1 
-1 
-1 
-1 
-1 
-1 
-1 
-1 
-1 
-1 
-1 
-1 
-1 
-1 
-1 
-1 
-1 
-1 
-1 
-1 
-1 
-1 
-1 
-1 
-1 
-1 
-1 
-1 
-1 
-1 
-1 
-1 
-1 
-1 
-1 
-1 
-1 
-1 
-1 
-1 
-1 
-1 
-1 
-1 
-1 
-1 
-1 
-1 
-1 
-1 
-1 
-1 
-1 
-1 
-1 
-1 
-1 
-1 
-1 
-1 
-1 
-1 
-1 
-1 
-1 
-1 
-1 
-1 
-1 
-1 
-1 
-1 
-1 
-1 
-1 
-1 
-1 
-1 
-1 
-1 
-1 
-1 
-1 
-1 
-1 
-1 
-1 
-1 
-1 
-1 
-1 
-1 
-1 
-1 
-1 
-1 
-1 
-1 
-1 
-1 
-1 
-1 
-1 
-1 
-1 
-1 
-1 
-1 
-1 
-1 
-1 
-1 
-1 
-1 
-1 
-1 
-1 
-1 
-1 
-1 
-1 
-1 
-1 
-1 
-1 
-1 
-1 
-1 
-1 
-1 
-1 
-1 
-1 
-1 
-1 
-1 
-1 
-1 
-1 
-1 
-1 
-1 
-1 
-1 
-1 
-1 
-1 
-1 
-1 
-1 
-1 
-1 
-1 
-1 
-1 
-1 
-1 
-1 
-1 
-1 
-1 
-1 
-1 
-1 
-1 
-1 
-1 
-1 
-1 
-1 
-1 
-1 
-1 
-1 
-1 
-1 
-1 
-1 
-1 
-1 
-1 
-1 
-1 
-1 
-1 
-1 
-1 
-1 
-1 
-1 
-1 
-1 
-1 
-1 
-1 
-1 
-1 
-1 
-1 
-1 
-1 
-1 
-1 
-1 
-1 
-1 
-1 
-1 
-1 
-1 
-1 
-1 
-1 
-1 
-1 
-1 
-1 
-1 
-1 
-1 
-1 
-1 
-1 
-1 
-1 
-1 
-1 
-1 
-1 
-1 
-1 
-1 
-1 
-1 
-1 
-1 
-1 
-1 
-1 
-1 
-1 
-1 
-1 
-1 
-1 
-1 
-1 
-1 
-1 
-1 
-1 
-1 
-1 
-1 
-1 
-1 
-1 
-1 
-1 
-1 
-1 
-1 
-1 
-1 
-1 
-1 
-1 
-1 
-1 
-1 
-1 
-1 
-1 
-1 
-1 
-1 
-1 
-1 
-1 
-1 
-1 
-1 
-1 
-1 
-1 
-1 
-1 
-1 
-1 
-1 
-1 
-1 
-1 
-1 
-1 
-1 
-1 
-1 
-1 
-1 
-1 
-1 
-1 
-1 
-1 
-1 
-1 
-1 
-1 
-1 
-1 
-1 
-1 
-1 
-1 
-1 
-1 
-1 
-1 
-1 
-1 
-1 
-1 
-1 
-1 
-1 
-1 
-1 
-1 
-1 
-1 
-1 
-1 
-1 
-1 
-1 
-1 
-1 
-1 
-1 
-1 
-1 
-1 
-1 
-1 
-1 
-1 
-1 
-1 
-1 
-1 
-1 
-1 
-1 
-1 
-1 
-1 
-1 
-1 
-1 
-1 
-1 
-1 
-1 
-1 
-1 
-1 
-1 
-1 
-1 
-1 
-1 
-1 
-1 
-1 
-1 
-1 
-1 
-1 
-1 
-1 
-1 
-1 
-1 
-1 
-1 
-1 
-1 
-1 
-1 
-1 
-1 
-1 
-1 
-1 
-1 
-1 
-1 
-1 
-1 
-1 
-1 
-1 
-1 
-1 
-1 
-1 
-1 
-1 
-1 
-1 
-1 
-1 
-1 
-1 
-1 
-1 
-1 
-1 
-1 
-1 
-1 
-1 
-1 
-1 
-1 
-1 
-1 
-1 
-1 
-1 
-1 
-1 
-1 
-1 
-1 
-1 
-1 
-1 
-1 
-1 
-1 
-1 
-1 
-1 
-1 
-1 
-1 
-1 
-1 
-1 
-1 
-1 
-1 
-1 
-1 
-1 
-1 
-1 
-1 
-1 
-1 
-1 
-1 
-1 
-1 
-1 
-1 
-1 
-1 
-1 
-1 
-1 
-1 
-1 
-1 
-1 
-1 
-1 
-1 
-1 
-1 
-1 
-1 
-1 
-1 
-1 
-1 
-1 
-1 
-1 
-1 
-1 
-1 
-1 
-1 
-1 
-1 
-1 
-1 
-1 
-1 
-1 
-1 
-1 
-1 
-1 
-1 
-1 
-1 
-1 
-1 
-1 
-1 
-1 
-1 
-1 
-1 
-1 
-1 
-1 
-1 
-1 
-1 
-1 
-1 
-1 
-1 
-1 
-1 
-1 
-1 
-1 
-1 
-1 
-1 
-1 
-1 
-1 
-1 
-1 
-1 
-1 
-1 
-1 
-1 
-1 
-1 
-1 
-1 
-1 
-1 
-1 
-1 
-1 
-1 
-1 
-1 
-1 
-1 
-1 
-1 
-1 
-1 
-1 
-1 
-1 
-1 
-1 
-1 
-1 
-1 
-1 
-1 
-1 
-1 
-1 
-1 
-1 
-1 
-1 
-1 
-1 
-1 
-1 
-1 
-1 
-1 
-1 
-1 
-1 
-1 
-1 
-1 
-1 
-1 
-1 
-1 
-1 
-1 
-1 
-1 
-1 
-1 
-1 
-1 
-1 
-1 
-1 
-1 
-1 
-1 
-1 
-1 
-1 
-1 
-1 
-1 
-1 
-1 
-1 
-1 
-1 
-1 
-1 
-1 
-1 
-1 
-1 
-1 
-1 
-1 
-1 
-1 
-1 
-1 
-1 
-1 
-1 
-1 
-1 
-1 
-1 
-1 
-1 
-1 
-1 
-1 
-1 
-1 
-1 
-1 
-1 
-1 
-1 
-1 
-1 
-1 
-1 
-1 
-1 
-1 
-1 
-1 
-1 
-1 
-1 
-1 
-1 
-1 
-1 
-1 
-1 
-1 
-1 
-1 
-1 
-1 
-1 
-1 
-1 
-1 
-1 
-1 
-1 
-1 
-1 
-1 
-1 
-1 
-1 
-1 
-1 
-1 
-1 
-1 
-1 
-1 
-1 
-1 
-1 
-1 
-1 
-1 
-1 
-1 
-1 
-1 
-1 
-1 
-1 
-1 
-1 
-1 
-1 
-1 
-1 
-1 
-1 
-1 
-1 
-1 
-1 
-1 
-1 
-1 
-1 
-1 
-1 
-1 
-1 
-1 
-1 
-1 
-1 
-1 
-1 
-1 
-1 
-1 
-1 
-1 
-1 
-1 
-1 
-1 
-1 
-1 
-1 
-1 
-1 
-1 
-1 
-1 
-1 
-1 
-1 
-1 
-1 
-1 
-1 
-1 
-1 
-1 
-1 
-1 
-1 
-1 
-1 
-1 
-1 
-1 
-1 
-1 
-1 
-1 
-1 
-1 
-1 
-1 
-1 
-1 
-1 
-1 
-1 
-1 
-1 
-1 
-1 
-1 
-1 
-1 
-1 
-1 
-1 
-1 
-1 
-1 
-1 
-1 
-1 
-1 
-1 
-1 
-1 
-1 
-1 
-1 
-1 
-1 
-1 
-1 
-1 
-1 
-1 
-1 
-1 
-1 
-1 
-1 
-1 
-1 
-1 
-1 
-1 
-1 
-1 
-1 
-1 
-1 
-1 
-1 
-1 
-1 
-1 
-1 
-1 
-1 
-1 
-1 
-1 
-1 
-1 
-1 
-1 
-1 
-1 
-1 
-1 
-1 
-1 
-1 
-1 
-1 
-1 
-1 
-1 
-1 
-1 
-1 
-1 
-1 
-1 
-1 
-1 
-1 
-1 
-1 
-1 
-1 
-1 
-1 
-1 
-1 
-1 
-1 
-1 
-1 
-1 
-1 
-1 
-1 
-1 
-1 
-1 
-1 
-1 
-1 
-1 
-1 
-1 
-1 
-1 
-1 
-1 
-1 
-1 
-1 
-1 
-1 
-1 
-1 
-1 
-1 
-1 
-1 
-1 
-1 
-1 
-1 
-1 
-1 
-1 
-1 
-1 
-1 
-1 
-1 
-1 
-1 
-1 
-1 
-1 
-1 
-1 
-1 
-1 
-1 
-1 
-1 
-1 
-1 
-1 
-1 
-1 
-1 
-1 
-1 
-1 
-1 
-1 
-1 
-1 
-1 
-1 
-1 
-1 
-1 
-1 
-1 
-1 
-1 
-1 
-1 
-1 
-1 
-1 
-1 
-1 
-1 
-1 
-1 
-1 
-1 
-1 
-1 
-1 
-1 
-1 
-1 
-1 
-1 
-1 
-1 
-1 
-1 
-1 
-1 
-1 
-1 
-1 
-1 
-1 
-1 
-1 
-1 
-1 
-1 
-1 
-1 
-1 
-1 
-1 
-1 
-1 
-1 
-1 
-1 
-1 
-1 
-1 
-1 
-1 
-1 
-1 
-1 
-1 
-1 
-1 
-1 
-1 
-1 
-1 
-1 
-1 
-1 
-1 
-1 
-1 
-1 
-1 
-1 
-1 
-1 
-1 
-1 
-1 
-1 
-1 
-1 
-1 
-1 
-1 
-1 
-1 
-1 
-1 
-1 
-1 
-1 
-1 
-1 
-1 
-1 
-1 
-1 
-1 
-1 
-1 
-1 
-1 
-1 
-1 
-1 
-1 
-1 
-1 
-1 
-1 
-1 
-1 
-1 
-1 
-1 
-1 
-1 
-1 
-1 
-1 
-1 
-1 
-1 
-1 
-1 
-1 
-1 
-1 
-1 
-1 
-1 
-1 
-1 
-1 
-1 
-1 
-1 
-1 
-1 
-1 
-1 
-1 
-1 
-1 
-1 
-1 
-1 
-1 
-1 
-1 
-1 
-1 
-1 
-1 
-1 
-1 
-1 
-1 
-1 
-1 
-1 
-1 
-1 
-1 
-1 
-1 
-1 
-1 
-1 
-1 
-1 
-1 
-1 
-1 
-1 
-1 
-1 
-1 
-1 
-1 
-1 
-1 
-1 
-1 
-1 
-1 
-1 
-1 
-1 
-1 
-1 
-1 
-1 
-1 
-1 
-1 
-1 
-1 
-1 
-1 
-1 
-1 
-1 
-1 
-1 
-1 
-1 
-1 
-1 
-1 
-1 
-1 
-1 
-1 
-1 
-1 
-1 
-1 
-1 
-1 
-1 
-1 
-1 
-1 
-1 
-1 
-1 
-1 
-1 
-1 
-1 
-1 
-1 
-1 
-1 
-1 
-1 
-1 
-1 
-1 
-1 
-1 
-1 
-1 
-1 
-1 
-1 
-1 
-1 
-1 
-1 
-1 
-1 
-1 
-1 
-1 
-1 
-1 
-1 
-1 
-1 
-1 
-1 
-1 
-1 
CELL_DATA 729
SCALARS GLOBAL_ID int 1
LOOKUP_TABLE default
-1 
-1 
-1 
-1 
-1 
-1 
-1 
-1 
-1 
-1 
-1 
-1 
-1 
-1 
-1 
-1 
-1 
-1 
-1 
-1 
-1 
-1 
-1 
-1 
-1 
-1 
-1 
-1 
-1 
-1 
-1 
-1 
-1 
-1 
-1 
-1 
-1 
-1 
-1 
-1 
-1 
-1 
-1 
-1 
-1 
-1 
-1 
-1 
-1 
-1 
-1 
-1 
-1 
-1 
-1 
-1 
-1 
-1 
-1 
-1 
-1 
-1 
-1 
-1 
-1 
-1 
-1 
-1 
-1 
-1 
-1 
-1 
-1 
-1 
-1 
-1 
-1 
-1 
-1 
-1 
-1 
-1 
-1 
-1 
-1 
-1 
-1 
-1 
-1 
-1 
-1 
-1 
-1 
-1 
-1 
-1 
-1 
-1 
-1 
-1 
-1 
-1 
-1 
-1 
-1 
-1 
-1 
-1 
-1 
-1 
-1 
-1 
-1 
-1 
-1 
-1 
-1 
-1 
-1 
-1 
-1 
-1 
-1 
-1 
-1 
-1 
-1 
-1 
-1 
-1 
-1 
-1 
-1 
-1 
-1 
-1 
-1 
-1 
-1 
-1 
-1 
-1 
-1 
-1 
-1 
-1 
-1 
-1 
-1 
-1 
-1 
-1 
-1 
-1 
-1 
-1 
-1 
-1 
-1 
-1 
-1 
-1 
-1 
-1 
-1 
-1 
-1 
-1 
-1 
-1 
-1 
-1 
-1 
-1 
-1 
-1 
-1 
-1 
-1 
-1 
-1 
-1 
-1 
-1 
-1 
-1 
-1 
-1 
-1 
-1 
-1 
-1 
-1 
-1 
-1 
-1 
-1 
-1 
-1 
-1 
-1 
-1 
-1 
-1 
-1 
-1 
-1 
-1 
-1 
-1 
-1 
-1 
-1 
-1 
-1 
-1 
-1 
-1 
-1 
-1 
-1 
-1 
-1 
-1 
-1 
-1 
-1 
-1 
-1 
-1 
-1 
-1 
-1 
-1 
-1 
-1 
-1 
-1 
-1 
-1 
-1 
-1 
-1 
-1 
-1 
-1 
-1 
-1 
-1 
-1 
-1 
-1 
-1 
-1 
-1 
-1 
-1 
-1 
-1 
-1 
-1 
-1 
-1 
-1 
-1 
-1 
-1 
-1 
-1 
-1 
-1 
-1 
-1 
-1 
-1 
-1 
-1 
-1 
-1 
-1 
-1 
-1 
-1 
-1 
-1 
-1 
-1 
-1 
-1 
-1 
-1 
-1 
-1 
-1 
-1 
-1 
-1 
-1 
-1 
-1 
-1 
-1 
-1 
-1 
-1 
-1 
-1 
-1 
-1 
-1 
-1 
-1 
-1 
-1 
-1 
-1 
-1 
-1 
-1 
-1 
-1 
-1 
-1 
-1 
-1 
-1 
-1 
-1 
-1 
-1 
-1 
-1 
-1 
-1 
-1 
-1 
-1 
-1 
-1 
-1 
-1 
-1 
-1 
-1 
-1 
-1 
-1 
-1 
-1 
-1 
-1 
-1 
-1 
-1 
-1 
-1 
-1 
-1 
-1 
-1 
-1 
-1 
-1 
-1 
-1 
-1 
-1 
-1 
-1 
-1 
-1 
-1 
-1 
-1 
-1 
-1 
-1 
-1 
-1 
-1 
-1 
-1 
-1 
-1 
-1 
-1 
-1 
-1 
-1 
-1 
-1 
-1 
-1 
-1 
-1 
-1 
-1 
-1 
-1 
-1 
-1 
-1 
-1 
-1 
-1 
-1 
-1 
-1 
-1 
-1 
-1 
-1 
-1 
-1 
-1 
-1 
-1 
-1 
-1 
-1 
-1 
-1 
-1 
-1 
-1 
-1 
-1 
-1 
-1 
-1 
-1 
-1 
-1 
-1 
-1 
-1 
-1 
-1 
-1 
-1 
-1 
-1 
-1 
-1 
-1 
-1 
-1 
-1 
-1 
-1 
-1 
-1 
-1 
-1 
-1 
-1 
-1 
-1 
-1 
-1 
-1 
-1 
-1 
-1 
-1 
-1 
-1 
-1 
-1 
-1 
-1 
-1 
-1 
-1 
-1 
-1 
-1 
-1 
-1 
-1 
-1 
-1 
-1 
-1 
-1 
-1 
-1 
-1 
-1 
-1 
-1 
-1 
-1 
-1 
-1 
-1 
-1 
-1 
-1 
-1 
-1 
-1 
-1 
-1 
-1 
-1 
-1 
-1 
-1 
-1 
-1 
-1 
-1 
-1 
-1 
-1 
-1 
-1 
-1 
-1 
-1 
-1 
-1 
-1 
-1 
-1 
-1 
-1 
-1 
-1 
-1 
-1 
-1 
-1 
-1 
-1 
-1 
-1 
-1 
-1 
-1 
-1 
-1 
-1 
-1 
-1 
-1 
-1 
-1 
-1 
-1 
-1 
-1 
-1 
-1 
-1 
-1 
-1 
-1 
-1 
-1 
-1 
-1 
-1 
-1 
-1 
-1 
-1 
-1 
-1 
-1 
-1 
-1 
-1 
-1 
-1 
-1 
-1 
-1 
-1 
-1 
-1 
-1 
-1 
-1 
-1 
-1 
-1 
-1 
-1 
-1 
-1 
-1 
-1 
-1 
-1 
-1 
-1 
-1 
-1 
-1 
-1 
-1 
-1 
-1 
-1 
-1 
-1 
-1 
-1 
-1 
-1 
-1 
-1 
-1 
-1 
-1 
-1 
-1 
-1 
-1 
-1 
-1 
-1 
-1 
-1 
-1 
-1 
-1 
-1 
-1 
-1 
-1 
-1 
-1 
-1 
-1 
-1 
-1 
-1 
-1 
-1 
-1 
-1 
-1 
-1 
-1 
-1 
-1 
-1 
-1 
-1 
-1 
-1 
-1 
-1 
-1 
-1 
-1 
-1 
-1 
-1 
-1 
-1 
-1 
-1 
-1 
-1 
-1 
-1 
-1 
-1 
-1 
-1 
-1 
-1 
-1 
-1 
-1 
-1 
-1 
-1 
-1 
-1 
-1 
-1 
-1 
-1 
-1 
-1 
-1 
-1 
-1 
-1 
-1 
-1 
-1 
-1 
-1 
-1 
-1 
-1 
-1 
-1 
-1 
-1 
-1 
-1 
-1 
-1 
-1 
-1 
-1 
-1 
-1 
-1 
-1 
-1 
-1 
-1 
-1 
-1 
-1 
-1 
-1 
-1 
-1 
-1 
-1 
SCALARS P double 1
LOOKUP_TABLE default
4506 
4453 
4420 
4398 
4381 
4367 
4356 
4346 
4338 
4330 
4324 
4318 
4312 
4307 
4303 
4298 
4295 
4292 
4289 
4286 
4284 
4282 
4280 
4278 
4277 
4276 
4276 
4453 
4431 
4410 
4392 
4378 
4365 
4354 
4345 
4337 
4329 
4323 
4317 
4312 
4307 
4302 
4298 
4294 
4291 
4288 
4286 
4283 
4281 
4279 
4278 
4277 
4276 
4275 
4420 
4410 
4397 
4384 
4372 
4361 
4351 
4343 
4335 
4328 
4322 
4316 
4310 
4306 
4301 
4297 
4294 
4290 
4287 
4285 
4282 
4280 
4279 
4277 
4276 
4275 
4274 
4398 
4392 
4384 
4374 
4365 
4356 
4347 
4339 
4332 
4326 
4320 
4314 
4309 
4304 
4300 
4296 
4292 
4289 
4286 
4284 
4281 
4279 
4277 
4276 
4275 
4274 
4273 
4381 
4378 
4372 
4365 
4357 
4350 
4342 
4335 
4329 
4323 
4317 
4312 
4307 
4302 
4298 
4294 
4291 
4288 
4285 
4282 
4280 
4278 
4276 
4274 
4273 
4272 
4272 
4367 
4365 
4361 
4356 
4350 
4343 
4337 
4331 
4325 
4320 
4314 
4309 
4305 
4300 
4296 
4292 
4289 
4286 
4283 
4280 
4278 
4276 
4274 
4273 
4271 
4270 
4270 
4356 
4354 
4351 
4347 
4342 
4337 
4332 
4326 
4321 
4316 
4311 
4306 
4302 
4298 
4294 
4290 
4287 
4284 
4281 
4278 
4276 
4274 
4272 
4270 
4269 
4268 
4268 
4346 
4345 
4343 
4339 
4335 
4331 
4326 
4322 
4317 
4312 
4308 
4303 
4299 
4295 
4291 
4288 
4284 
4281 
4278 
4276 
4273 
4271 
4269 
4268 
4266 
4265 
4265 
4338 
4337 
4335 
4332 
4329 
4325 
4321 
4317 
4313 
4308 
4304 
4300 
4296 
4292 
4288 
4285 
4281 
4278 
4275 
4273 
4270 
4268 
4266 
4264 
4263 
4262 
4262 
4330 
4329 
4328 
4326 
4323 
4320 
4316 
4312 
4308 
4304 
4300 
4296 
4293 
4289 
4285 
4282 
4278 
4275 
4272 
4270 
4267 
4265 
4263 
4261 
4260 
4259 
4258 
4323 
4323 
4321 
4320 
4317 
4314 
4311 
4308 
4304 
4300 
4297 
4293 
4289 
4285 
4282 
4278 
4275 
4272 
4269 
4266 
4263 
4261 
4259 
4257 
4256 
4255 
4254 
4317 
4317 
4316 
4314 
4312 
4309 
4306 
4303 
4300 
4296 
4293 
4289 
4286 
4282 
4278 
4275 
4272 
4268 
4265 
4262 
4259 
4257 
4255 
4253 
4251 
4250 
4249 
4312 
4311 
4310 
4309 
4307 
4305 
4302 
4299 
4296 
4293 
4289 
4286 
4282 
4278 
4275 
4271 
4268 
4264 
4261 
4258 
4255 
4252 
4250 
4248 
4246 
4245 
4244 
4307 
4306 
4306 
4304 
4302 
4300 
4298 
4295 
4292 
4289 
4285 
4282 
4278 
4275 
4271 
4268 
4264 
4260 
4257 
4254 
4250 
4248 
4245 
4243 
4241 
4240 
4239 
4302 
4302 
4301 
4300 
4298 
4296 
4294 
4291 
4288 
4285 
4282 
4278 
4275 
4271 
4267 
4264 
4260 
4256 
4252 
4249 
4245 
4242 
4239 
4237 
4235 
4233 
4233 
4298 
4298 
4297 
4296 
4294 
4292 
4290 
4287 
4285 
4282 
4278 
4275 
4271 
4268 
4264 
4260 
4256 
4252 
4248 
4244 
4240 
4236 
4233 
4230 
4228 
4227 
4226 
4295 
4294 
4293 
4292 
4291 
4289 
4287 
4284 
4281 
4278 
4275 
4271 
4268 
4264 
4260 
4256 
4251 
4247 
4243 
4238 
4234 
4230 
4227 
4223 
4221 
4219 
4218 
4291 
4291 
4290 
4289 
4288 
4286 
4283 
4281 
4278 
4275 
4272 
4268 
4264 
4260 
4256 
4252 
4247 
4242 
4238 
4233 
4228 
4223 
4219 
4216 
4213 
4211 
4209 
4288 
4288 
4287 
4286 
4285 
4283 
4281 
4278 
4275 
4272 
4269 
4265 
4261 
4257 
4252 
4248 
4243 
4238 
4232 
4227 
4221 
4216 
4211 
4207 
4204 
4201 
4200 
4286 
4285 
4285 
4283 
4282 
4280 
4278 
4275 
4273 
4269 
4266 
4262 
4258 
4253 
4249 
4244 
4238 
4233 
4227 
4221 
4215 
4209 
4203 
4198 
4193 
4190 
4189 
4283 
4283 
4282 
4281 
4280 
4278 
4276 
4273 
4270 
4267 
4263 
4259 
4255 
4250 
4245 
4240 
4234 
4228 
4221 
4215 
4208 
4201 
4194 
4187 
4182 
4178 
4176 
4281 
4281 
4280 
4279 
4277 
4276 
4273 
4271 
4268 
4264 
4261 
4257 
4252 
4247 
4242 
4236 
4230 
4223 
4216 
4209 
4201 
4192 
4184 
4176 
4169 
4163 
4160 
4279 
4279 
4278 
4277 
4276 
4274 
4271 
4269 
4266 
4262 
4259 
4254 
4250 
4245 
4239 
4233 
4226 
4219 
4211 
4203 
4194 
4184 
4174 
4163 
4153 
4146 
4141 
4278 
4277 
4277 
4275 
4274 
4272 
4270 
4267 
4264 
4261 
4257 
4252 
4248 
4242 
4237 
4230 
4223 
4216 
4207 
4198 
4187 
4176 
4163 
4150 
4136 
4125 
4117 
4276 
4276 
4275 
4274 
4273 
4271 
4268 
4266 
4263 
4259 
4255 
4251 
4246 
4241 
4235 
4228 
4221 
4213 
4203 
4193 
4182 
4169 
4154 
4137 
4118 
4099 
4085 
4276 
4275 
4274 
4273 
4272 
4270 
4267 
4265 
4262 
4258 
4254 
4250 
4245 
4239 
4233 
4226 
4219 
4210 
4201 
4190 
4178 
4163 
4146 
4125 
4099 
4069 
4038 
4275 
4275 
4274 
4273 
4271 
4269 
4267 
4264 
4261 
4257 
4253 
4249 
4244 
4238 
4232 
4225 
4218 
4209 
4200 
4189 
4176 
4161 
4142 
4118 
4085 
4038 
3959 
SCALARS So double 1
LOOKUP_TABLE default
0.2946 
0.2948 
0.295 
0.2952 
0.2954 
0.2956 
0.2959 
0.2962 
0.2965 
0.2969 
0.2973 
0.2977 
0.2982 
0.2987 
0.2994 
0.3001 
0.3021 
0.307 
0.3151 
0.3265 
0.3405 
0.3564 
0.3735 
0.3921 
0.4175 
0.4895 
0.7031 
0.2948 
0.2949 
0.2951 
0.2952 
0.2955 
0.2957 
0.296 
0.2962 
0.2966 
0.2969 
0.2973 
0.2977 
0.2982 
0.2988 
0.2994 
0.3002 
0.3023 
0.3073 
0.3157 
0.3272 
0.3412 
0.357 
0.374 
0.3924 
0.4177 
0.4899 
0.7038 
0.295 
0.2951 
0.2952 
0.2953 
0.2955 
0.2958 
0.296 
0.2963 
0.2966 
0.297 
0.2974 
0.2978 
0.2983 
0.2989 
0.2995 
0.3003 
0.3027 
0.3079 
0.3165 
0.328 
0.342 
0.3577 
0.3746 
0.3927 
0.418 
0.4902 
0.7044 
0.2952 
0.2952 
0.2953 
0.2955 
0.2957 
0.2959 
0.2961 
0.2964 
0.2967 
0.2971 
0.2975 
0.2979 
0.2984 
0.299 
0.2996 
0.3005 
0.3031 
0.3087 
0.3175 
0.3291 
0.3431 
0.3586 
0.3752 
0.3931 
0.4182 
0.4905 
0.7049 
0.2954 
0.2955 
0.2955 
0.2957 
0.2958 
0.296 
0.2963 
0.2965 
0.2969 
0.2972 
0.2976 
0.298 
0.2985 
0.2991 
0.2997 
0.3007 
0.3038 
0.3097 
0.3187 
0.3305 
0.3443 
0.3596 
0.376 
0.3935 
0.4185 
0.4907 
0.7053 
0.2956 
0.2957 
0.2958 
0.2959 
0.296 
0.2962 
0.2965 
0.2967 
0.297 
0.2974 
0.2978 
0.2982 
0.2987 
0.2992 
0.2999 
0.3011 
0.3046 
0.311 
0.3203 
0.332 
0.3457 
0.3608 
0.3768 
0.394 
0.4187 
0.4908 
0.7055 
0.2959 
0.296 
0.296 
0.2961 
0.2963 
0.2965 
0.2967 
0.2969 
0.2972 
0.2976 
0.2979 
0.2984 
0.2989 
0.2994 
0.3001 
0.3017 
0.3057 
0.3125 
0.322 
0.3338 
0.3473 
0.3621 
0.3777 
0.3944 
0.4189 
0.4908 
0.7055 
0.2962 
0.2962 
0.2963 
0.2964 
0.2965 
0.2967 
0.2969 
0.2972 
0.2975 
0.2978 
0.2982 
0.2986 
0.2991 
0.2996 
0.3004 
0.3026 
0.3072 
0.3144 
0.3241 
0.3358 
0.3491 
0.3634 
0.3786 
0.3948 
0.419 
0.4906 
0.7053 
0.2965 
0.2966 
0.2966 
0.2967 
0.2969 
0.297 
0.2972 
0.2975 
0.2977 
0.2981 
0.2985 
0.2989 
0.2994 
0.2999 
0.3009 
0.3038 
0.309 
0.3166 
0.3264 
0.338 
0.3509 
0.3648 
0.3795 
0.3952 
0.419 
0.4903 
0.7047 
0.2969 
0.2969 
0.297 
0.2971 
0.2972 
0.2974 
0.2976 
0.2978 
0.2981 
0.2984 
0.2988 
0.2992 
0.2996 
0.3002 
0.3019 
0.3055 
0.3112 
0.3191 
0.3289 
0.3403 
0.3528 
0.3662 
0.3804 
0.3956 
0.419 
0.4896 
0.7038 
0.2973 
0.2973 
0.2974 
0.2975 
0.2976 
0.2978 
0.2979 
0.2982 
0.2984 
0.2988 
0.2991 
0.2995 
0.3 
0.3009 
0.3034 
0.3077 
0.3139 
0.322 
0.3317 
0.3428 
0.3548 
0.3677 
0.3813 
0.3959 
0.4188 
0.4887 
0.7023 
0.2977 
0.2977 
0.2978 
0.2979 
0.298 
0.2982 
0.2984 
0.2986 
0.2989 
0.2992 
0.2995 
0.2999 
0.3005 
0.3023 
0.3055 
0.3105 
0.3171 
0.3252 
0.3347 
0.3453 
0.3569 
0.3691 
0.3821 
0.3961 
0.4184 
0.4875 
0.7002 
0.2982 
0.2982 
0.2983 
0.2984 
0.2985 
0.2987 
0.2989 
0.2991 
0.2993 
0.2996 
0.3 
0.3005 
0.302 
0.3046 
0.3085 
0.3139 
0.3207 
0.3288 
0.3379 
0.348 
0.3589 
0.3706 
0.3829 
0.3963 
0.4179 
0.4858 
0.6974 
0.2987 
0.2988 
0.2988 
0.2989 
0.2991 
0.2992 
0.2994 
0.2996 
0.2999 
0.3002 
0.3009 
0.3022 
0.3045 
0.3079 
0.3124 
0.3181 
0.3248 
0.3326 
0.3413 
0.3508 
0.361 
0.372 
0.3836 
0.3963 
0.4172 
0.4836 
0.6936 
0.2994 
0.2994 
0.2995 
0.2996 
0.2997 
0.2999 
0.3 
0.3003 
0.3009 
0.3018 
0.3033 
0.3055 
0.3085 
0.3124 
0.3172 
0.3229 
0.3294 
0.3368 
0.3449 
0.3537 
0.3632 
0.3733 
0.3842 
0.3963 
0.4162 
0.4808 
0.6887 
0.3001 
0.3002 
0.3003 
0.3004 
0.3007 
0.301 
0.3016 
0.3025 
0.3037 
0.3053 
0.3075 
0.3103 
0.3138 
0.318 
0.3228 
0.3283 
0.3345 
0.3412 
0.3486 
0.3566 
0.3653 
0.3746 
0.3847 
0.3961 
0.415 
0.4773 
0.6823 
0.302 
0.3022 
0.3025 
0.303 
0.3036 
0.3044 
0.3055 
0.3069 
0.3087 
0.3109 
0.3136 
0.3168 
0.3205 
0.3246 
0.3293 
0.3344 
0.34 
0.346 
0.3526 
0.3597 
0.3675 
0.3759 
0.3852 
0.3958 
0.4135 
0.473 
0.6744 
0.3067 
0.307 
0.3076 
0.3084 
0.3094 
0.3106 
0.3121 
0.314 
0.3162 
0.3187 
0.3216 
0.3248 
0.3284 
0.3323 
0.3365 
0.341 
0.3459 
0.3512 
0.3568 
0.363 
0.3698 
0.3773 
0.3856 
0.3954 
0.4117 
0.4678 
0.6644 
0.3153 
0.3159 
0.3167 
0.3177 
0.319 
0.3205 
0.3223 
0.3244 
0.3267 
0.3293 
0.3321 
0.3351 
0.3383 
0.3418 
0.3454 
0.3492 
0.3532 
0.3575 
0.3621 
0.3672 
0.3728 
0.3792 
0.3864 
0.3951 
0.4099 
0.4622 
0.6531 
0.3275 
0.3281 
0.329 
0.3301 
0.3315 
0.333 
0.3349 
0.3369 
0.3391 
0.3414 
0.3439 
0.3465 
0.3492 
0.352 
0.3549 
0.3579 
0.361 
0.3643 
0.3678 
0.3717 
0.3761 
0.3812 
0.3873 
0.3948 
0.4079 
0.4555 
0.6392 
0.3422 
0.3429 
0.3437 
0.3448 
0.3461 
0.3475 
0.3491 
0.3509 
0.3527 
0.3547 
0.3567 
0.3587 
0.3608 
0.3629 
0.365 
0.3672 
0.3694 
0.3716 
0.3741 
0.3768 
0.3799 
0.3837 
0.3883 
0.3945 
0.4058 
0.4477 
0.6222 
0.3588 
0.3594 
0.3602 
0.3611 
0.3621 
0.3633 
0.3645 
0.3659 
0.3673 
0.3687 
0.3702 
0.3716 
0.373 
0.3744 
0.3757 
0.377 
0.3783 
0.3796 
0.381 
0.3825 
0.3843 
0.3867 
0.3898 
0.3945 
0.4037 
0.4389 
0.6015 
0.3767 
0.3771 
0.3777 
0.3783 
0.3791 
0.3799 
0.3807 
0.3816 
0.3825 
0.3834 
0.3842 
0.3851 
0.3858 
0.3865 
0.3871 
0.3876 
0.388 
0.3883 
0.3887 
0.389 
0.3896 
0.3905 
0.3921 
0.395 
0.4018 
0.4295 
0.575 
0.3958 
0.3961 
0.3965 
0.3968 
0.3972 
0.3976 
0.398 
0.3984 
0.3988 
0.3991 
0.3994 
0.3996 
0.3997 
0.3997 
0.3997 
0.3995 
0.3991 
0.3987 
0.3981 
0.3974 
0.3966 
0.396 
0.3959 
0.3967 
0.4007 
0.4204 
0.5431 
0.425 
0.4253 
0.4257 
0.426 
0.4263 
0.4265 
0.4268 
0.4269 
0.427 
0.427 
0.4268 
0.4265 
0.4259 
0.4251 
0.424 
0.4226 
0.4208 
0.4187 
0.4162 
0.4134 
0.4103 
0.4072 
0.4044 
0.4022 
0.4019 
0.4134 
0.5081 
0.5079 
0.5084 
0.5089 
0.5093 
0.5096 
0.5099 
0.51 
0.5099 
0.5097 
0.5091 
0.5083 
0.5071 
0.5054 
0.5032 
0.5005 
0.4969 
0.4925 
0.4869 
0.4801 
0.4719 
0.4623 
0.4515 
0.4398 
0.4281 
0.418 
0.4163 
0.4736 
0.7334 
0.7342 
0.7349 
0.7356 
0.7362 
0.7366 
0.7369 
0.737 
0.7367 
0.736 
0.7349 
0.7331 
0.7306 
0.7271 
0.7226 
0.7167 
0.7094 
0.7 
0.688 
0.6726 
0.6534 
0.6301 
0.6022 
0.5671 
0.5266 
0.4868 
0.4805 
SCALARS Sw double 1
LOOKUP_TABLE default
0.7054 
0.7052 
0.705 
0.7048 
0.7046 
0.7044 
0.7041 
0.7038 
0.7035 
0.7031 
0.7027 
0.7023 
0.7018 
0.7013 
0.7006 
0.6999 
0.6979 
0.693 
0.6849 
0.6735 
0.6595 
0.6436 
0.6265 
0.6079 
0.5825 
0.5105 
0.2969 
0.7052 
0.7051 
0.7049 
0.7048 
0.7045 
0.7043 
0.704 
0.7038 
0.7034 
0.7031 
0.7027 
0.7023 
0.7018 
0.7012 
0.7006 
0.6998 
0.6977 
0.6927 
0.6843 
0.6728 
0.6588 
0.643 
0.626 
0.6076 
0.5823 
0.5101 
0.2962 
0.705 
0.7049 
0.7048 