# vtk DataFile Version 3.0
MOAB 5.4.1
ASCII
DATASET UNSTRUCTURED_GRID
POINTS 200 double
0 0 0
160 0 0
320 0 0
480 0 0
640 0 0
720 0 0
880 0 0
1040 0 0
1200 0 0
1360 0 0
0 160 0
160 160 0
320 160 0
480 160 0
640 160 0
720 160 0
880 160 0
1040 160 0
1200 160 0
1360 160 0
0 320 0
160 320 0
320 320 0
480 320 0
640 320 0
720 320 0
880 320 0
1040 320 0
1200 320 0
1360 320 0
0 480 0
160 480 0
320 480 0
480 480 0
640 480 0
720 480 0
880 480 0
1040 480 0
1200 480 0
1360 480 0
0 640 0
160 640 0
320 640 0
480 640 0
640 640 0
720 640 0
880 640 0
1040 640 0
1200 640 0
1360 640 0
0 720 0
160 720 0
320 720 0
480 720 0
640 720 0
720 720 0
880 720 0
1040 720 0
1200 720 0
1360 720 0
0 880 0
160 880 0
320 880 0
480 880 0
640 880 0
720 880 0
880 880 0
1040 880 0
1200 880 0
1360 880 0
0 1040 0
160 1040 0
320 1040 0
480 1040 0
640 1040 0
720 1040 0
880 1040 0
1040 1040 0
1200 1040 0
1360 1040 0
0 1200 0
160 1200 0
320 1200 0
480 1200 0
640 1200 0
720 1200 0
880 1200 0
1040 1200 0
1200 1200 0
1360 1200 0
0 1360 0
160 1360 0
320 1360 0
480 1360 0
640 1360 0
720 1360 0
880 1360 0
1040 1360 0
1200 1360 0
1360 1360 0
0 0 -30
160 0 -30
320 0 -30
480 0 -30
640 0 -30
720 0 -30
880 0 -30
1040 0 -30
1200 0 -30
1360 0 -30
0 160 -30
160 160 -30
320 160 -30
480 160 -30
640 160 -30
720 160 -30
880 160 -30
1040 160 -30
1200 160 -30
1360 160 -30
0 320 -30
160 320 -30
320 320 -30
480 320 -30
640 320 -30
720 320 -30
880 320 -30
1040 320 -30
1200 320 -30
1360 320 -30
0 480 -30
160 480 -30
320 480 -30
480 480 -30
640 480 -30
720 480 -30
880 480 -30
1040 480 -30
1200 480 -30
1360 480 -30
0 640 -30
160 640 -30
320 640 -30
480 640 -30
640 640 -30
720 640 -30
880 640 -30
1040 640 -30
1200 640 -30
1360 640 -30
0 720 -30
160 720 -30
320 720 -30
480 720 -30
640 720 -30
720 720 -30
880 720 -30
1040 720 -30
1200 720 -30
1360 720 -30
0 880 -30
160 880 -30
320 880 -30
480 880 -30
640 880 -30
720 880 -30
880 880 -30
1040 880 -30
1200 880 -30
1360 880 -30
0 1040 -30
160 1040 -30
320 1040 -30
480 1040 -30
640 1040 -30
720 1040 -30
880 1040 -30
1040 1040 -30
1200 1040 -30
1360 1040 -30
0 1200 -30
160 1200 -30
320 1200 -30
480 1200 -30
640 1200 -30
720 1200 -30
880 1200 -30
1040 1200 -30
1200 1200 -30
1360 1200 -30
0 1360 -30
160 1360 -30
320 1360 -30
480 1360 -30
640 1360 -30
720 1360 -30
880 1360 -30
1040 1360 -30
1200 1360 -30
1360 1360 -30
CELLS 81 729
8 0 1 11 10 100 101 111 110
8 10 11 21 20 110 111 121 120
8 20 21 31 30 120 121 131 130
8 30 31 41 40 130 131 141 140
8 40 41 51 50 140 141 151 150
8 50 51 61 60 150 151 161 160
8 60 61 71 70 160 161 171 170
8 70 71 81 80 170 171 181 180
8 80 81 91 90 180 181 191 190
8 1 2 12 11 101 102 112 111
8 11 12 22 21 111 112 122 121
8 21 22 32 31 121 122 132 131
8 31 32 42 41 131 132 142 141
8 41 42 52 51 141 142 152 151
8 51 52 62 61 151 152 162 161
8 61 62 72 71 161 162 172 171
8 71 72 82 81 171 172 182 181
8 81 82 92 91 181 182 192 191
8 2 3 13 12 102 103 113 112
8 12 13 23 22 112 113 123 122
8 22 23 33 32 122 123 133 132
8 32 33 43 42 132 133 143 142
8 42 43 53 52 142 143 153 152
8 52 53 63 62 152 153 163 162
8 62 63 73 72 162 163 173 172
8 72 73 83 82 172 173 183 182
8 82 83 93 92 182 183 193 192
8 3 4 14 13 103 104 114 113
8 13 14 24 23 113 114 124 123
8 23 24 34 33 123 124 134 133
8 33 34 44 43 133 134 144 143
8 43 44 54 53 143 144 154 153
8 53 54 64 63 153 154 164 163
8 63 64 74 73 163 164 174 173
8 73 74 84 83 173 174 184 183
8 83 84 94 93 183 184 194 193
8 4 5 15 14 104 105 115 114
8 14 15 25 24 114 115 125 124
8 24 25 35 34 124 125 135 134
8 34 35 45 44 134 135 145 144
8 44 45 55 54 144 145 155 154
8 54 55 65 64 154 155 165 164
8 64 65 75 74 164 165 175 174
8 74 75 85 84 174 175 185 184
8 84 85 95 94 184 185 195 194
8 5 6 16 15 105 106 116 115
8 15 16 26 25 115 116 126 125
8 25 26 36 35 125 126 136 135
8 35 36 46 45 135 136 146 145
8 45 46 56 55 145 146 156 155
8 55 56 66 65 155 156 166 165
8 65 66 76 75 165 166 176 175
8 75 76 86 85 175 176 186 185
8 85 86 96 95 185 186 196 195
8 6 7 17 16 106 107 117 116
8 16 17 27 26 116 117 127 126
8 26 27 37 36 126 127 137 136
8 36 37 47 46 136 137 147 146
8 46 47 57 56 146 147 157 156
8 56 57 67 66 156 157 167 166
8 66 67 77 76 166 167 177 176
8 76 77 87 86 176 177 187 186
8 86 87 97 96 186 187 197 196
8 7 8 18 17 107 108 118 117
8 17 18 28 27 117 118 128 127
8 27 28 38 37 127 128 138 137
8 37 38 48 47 137 138 148 147
8 47 48 58 57 147 148 158 157
8 57 58 68 67 157 158 168 167
8 67 68 78 77 167 168 178 177
8 77 78 88 87 177 178 188 187
8 87 88 98 97 187 188 198 197
8 8 9 19 18 108 109 119 118
8 18 19 29 28 118 119 129 128
8 28 29 39 38 128 129 139 138
8 38 39 49 48 138 139 149 148
8 48 49 59 58 148 149 159 158
8 58 59 69 68 158 159 169 168
8 68 69 79 78 168 169 179 178
8 78 79 89 88 178 179 189 188
8 88 89 99 98 188 189 199 198
CELL_TYPES 81
12
12
12
12
12
12
12
12
12
12
12
12
12
12
12
12
12
12
12
12
12
12
12
12
12
12
12
12
12
12
12
12
12
12
12
12
12
12
12
12
12
12
12
12
12
12
12
12
12
12
12
12
12
12
12
12
12
12
12
12
12
12
12
12
12
12
12
12
12
12
12
12
12
12
12
12
12
12
12
12
12
POINT_DATA 200
SCALARS GLOBAL_ID int 1
LOOKUP_TABLE default
-1 
-1 
-1 
-1 
-1 
-1 
-1 
-1 
-1 
-1 
-1 
-1 
-1 
-1 
-1 
-1 
-1 
-1 
-1 
-1 
-1 
-1 
-1 
-1 
-1 
-1 
-1 
-1 
-1 
-1 
-1 
-1 
-1 
-1 
-1 
-1 
-1 
-1 
-1 
-1 
-1 
-1 
-1 
-1 
-1 
-1 
-1 
-1 
-1 
-1 
-1 
-1 
-1 
-1 
-1 
-1 
-1 
-1 
-1 
-1 
-1 
-1 
-1 
-1 
-1 
-1 
-1 
-1 
-1 
-1 
-1 
-1 
-1 
-1 
-1 
-1 
-1 
-1 
-1 
-1 
-1 
-1 
-1 
-1 
-1 
-1 
-1 
-1 
-1 
-1 
-1 
-1 
-1 
-1 
-1 
-1 
-1 
-1 
-1 
-1 
-1 
-1 
-1 
-1 
-1 
-1 
-1 
-1 
-1 
-1 
-1 
-1 
-1 
-1 
-1 
-1 
-1 
-1 
-1 
-1 
-1 
-1 
-1 
-1 
-1 
-1 
-1 
-1 
-1 
-1 
-1 
-1 
-1 
-1 
-1 
-1 
-1 
-1 
-1 
-1 
-1 
-1 
-1 
-1 
-1 
-1 
-1 
-1 
-1 
-1 
-1 
-1 
-1 
-1 
-1 
-1 
-1 
-1 
-1 
-1 
-1 
-1 
-1 
-1 
-1 
-1 
-1 
-1 
-1 
-1 
-1 
-1 
-1 
-1 
-1 
-1 
-1 
-1 
-1 
-1 
-1 
-1 
-1 
-1 
-1 
-1 
-1 
-1 
-1 
-1 
-1 
-1 
-1 
-1 
-1 
-1 
-1 
-1 
-1 
-1 
CELL_DATA 81
SCALARS GLOBAL_ID int 1
LOOKUP_TABLE default
-1 
-1 
-1 
-1 
-1 
-1 
-1 
-1 
-1 
-1 
-1 
-1 
-1 
-1 
-1 
-1 
-1 
-1 
-1 
-1 
-1 
-1 
-1 
-1 
-1 
-1 
-1 
-1 
-1 
-1 
-1 
-1 
-1 
-1 
-1 
-1 
-1 
-1 
-1 
-1 
-1 
-1 
-1 
-1 
-1 
-1 
-1 
-1 
-1 
-1 
-1 
-1 
-1 
-1 
-1 
-1 
-1 
-1 
-1 
-1 
-1 
-1 
-1 
-1 
-1 
-1 
-1 
-1 
-1 
-1 
-1 
-1 
-1 
-1 
-1 
-1 
-1 
-1 
-1 
-1 
-1 
SCALARS P double 1
LOOKUP_TABLE default
5593 
5518 
5469 
5431 
5412 
5396 
5378 
5364 
5355 
5518 
5487 
5451 
5422 
5405 
5390 
5372 
5357 
5347 
5469 
5450 
5429 
5407 
5392 
5377 
5360 
5344 
5333 
5431 
5422 
5407 
5389 
5375 
5361 
5342 
5326 
5313 
5412 
5405 
5392 
5375 
5361 
5346 
5326 
5308 
5293 
5395 
5389 
5377 
5361 
5346 
5330 
5309 
5288 
5272 
5377 
5371 
5358 
5341 
5325 
5308 
5282 
5256 
5243 
5362 
5355 
5343 
5324 
5306 
5286 
5256 
5228 
5209 
5352 
5345 
5330 
5311 
5292 
5272 
5243 
5210 
5161 
SCALARS So double 1
LOOKUP_TABLE default
0.2867 
0.2961 
0.3258 
0.3046 
0.3114 
0.3438 
0.3908 
0.4686 
0.6826 
0.2961 
0.3204 
0.3006 
0.3104 
0.3204 
0.3551 
0.3993 
0.4805 
0.7016 
0.3258 
0.3006 
0.3062 
0.3238 
0.3365 
0.3705 
0.4109 
0.4971 
0.7276 
0.3045 
0.3103 
0.3237 
0.3459 
0.3585 
0.3879 
0.4267 
0.5207 
0.7612 
0.3113 
0.3202 
0.3363 
0.3584 
0.3696 
0.3959 
0.4341 
0.5314 
0.7787 
0.3465 
0.3578 
0.3734 
0.3909 
0.3987 
0.4221 
0.4704 
0.5943 
0.8266 
0.3961 
0.4049 
0.4179 
0.4356 
0.4441 
0.4769 
0.5408 
0.7086 
0.8574 
0.4823 
0.4959 
0.5156 
0.5446 
0.5586 
0.6198 
0.722 
0.8255 
0.8691 
0.7075 
0.728 
0.7556 
0.7889 
0.8062 
0.8404 
0.8611 
0.8697 
0.8742 
SCALARS Sw double 1
LOOKUP_TABLE default
0.7133 
0.7039 
0.6675 
0.6954 
0.6886 
0.6562 
0.6092 
0.5296 
0.3138 
0.7039 
0.6742 
0.6994 
0.6896 
0.6796 
0.6449 
0.6007 
0.5172 
0.2946 
0.6675 
0.6994 
0.6938 
0.6762 
0.6635 
0.6295 
0.5884 
0.4999 
0.2681 
0.6955 
0.6897 
0.6763 
0.6541 
0.6415 
0.6121 
0.5714 
0.4757 
0.2346 
0.6887 
0.6798 
0.6637 
0.6416 
0.6304 
0.6035 
0.5635 
0.4648 
0.2172 
0.6535 
0.6422 
0.6266 
0.6091 
0.6006 
0.5759 
0.5265 
0.4022 
0.1699 
0.6039 
0.5951 
0.5812 
0.5623 
0.5534 
0.5199 
0.4559 
0.2882 
0.1395 
0.5158 
0.5017 
0.4812 
0.4517 
0.4375 
0.3767 
0.2748 
0.1716 
0.1282 
0.2888 
0.2677 
0.2398 
0.2068 
0.1897 
0.156 
0.1358 
0.1276 
0.1231 
SCALARS Sg double 1
LOOKUP_TABLE default
0 
0 
0.006659 
0 
0 
0 
0 
0.001755 
0.003603 
0 
0.005376 
0 
0 
0 
0 
0 
0.002261 
0.003741 
0.006656 
0 
0 
0 
0 
0 
0.0006966 
0.002974 
0.004229 
0 
0 
0 
0 
0 
0 
0.00182 
0.003569 
0.004152 
0 
0 
0 
0 
0 
0.0006111 
0.002391 
0.003731 
0.004031 
0 
0 
0 
0 
0.0007119 
0.002005 
0.003101 
0.003493 
0.003498 
0 
0 
0.0008823 
0.002014 
0.002568 
0.003144 
0.003287 
0.003192 
0.003088 
0.001982 
0.002449 
0.003156 
0.00369 
0.003803 
0.003519 
0.003204 
0.002922 
0.002736 
0.003723 
0.00436 
0.004561 
0.004268 
0.004077 
0.003526 
0.003106 
0.002741 
0.002716 
