# vtk DataFile Version 3.0
MOAB 5.4.1
ASCII
DATASET UNSTRUCTURED_GRID
POINTS 200 double
0 0 0
160 0 0
320 0 0
480 0 0
640 0 0
720 0 0
880 0 0
1040 0 0
1200 0 0
1360 0 0
0 160 0
160 160 0
320 160 0
480 160 0
640 160 0
720 160 0
880 160 0
1040 160 0
1200 160 0
1360 160 0
0 320 0
160 320 0
320 320 0
480 320 0
640 320 0
720 320 0
880 320 0
1040 320 0
1200 320 0
1360 320 0
0 480 0
160 480 0
320 480 0
480 480 0
640 480 0
720 480 0
880 480 0
1040 480 0
1200 480 0
1360 480 0
0 640 0
160 640 0
320 640 0
480 640 0
640 640 0
720 640 0
880 640 0
1040 640 0
1200 640 0
1360 640 0
0 720 0
160 720 0
320 720 0
480 720 0
640 720 0
720 720 0
880 720 0
1040 720 0
1200 720 0
1360 720 0
0 880 0
160 880 0
320 880 0
480 880 0
640 880 0
720 880 0
880 880 0
1040 880 0
1200 880 0
1360 880 0
0 1040 0
160 1040 0
320 1040 0
480 1040 0
640 1040 0
720 1040 0
880 1040 0
1040 1040 0
1200 1040 0
1360 1040 0
0 1200 0
160 1200 0
320 1200 0
480 1200 0
640 1200 0
720 1200 0
880 1200 0
1040 1200 0
1200 1200 0
1360 1200 0
0 1360 0
160 1360 0
320 1360 0
480 1360 0
640 1360 0
720 1360 0
880 1360 0
1040 1360 0
1200 1360 0
1360 1360 0
0 0 -30
160 0 -30
320 0 -30
480 0 -30
640 0 -30
720 0 -30
880 0 -30
1040 0 -30
1200 0 -30
1360 0 -30
0 160 -30
160 160 -30
320 160 -30
480 160 -30
640 160 -30
720 160 -30
880 160 -30
1040 160 -30
1200 160 -30
1360 160 -30
0 320 -30
160 320 -30
320 320 -30
480 320 -30
640 320 -30
720 320 -30
880 320 -30
1040 320 -30
1200 320 -30
1360 320 -30
0 480 -30
160 480 -30
320 480 -30
480 480 -30
640 480 -30
720 480 -30
880 480 -30
1040 480 -30
1200 480 -30
1360 480 -30
0 640 -30
160 640 -30
320 640 -30
480 640 -30
640 640 -30
720 640 -30
880 640 -30
1040 640 -30
1200 640 -30
1360 640 -30
0 720 -30
160 720 -30
320 720 -30
480 720 -30
640 720 -30
720 720 -30
880 720 -30
1040 720 -30
1200 720 -30
1360 720 -30
0 880 -30
160 880 -30
320 880 -30
480 880 -30
640 880 -30
720 880 -30
880 880 -30
1040 880 -30
1200 880 -30
1360 880 -30
0 1040 -30
160 1040 -30
320 1040 -30
480 1040 -30
640 1040 -30
720 1040 -30
880 1040 -30
1040 1040 -30
1200 1040 -30
1360 1040 -30
0 1200 -30
160 1200 -30
320 1200 -30
480 1200 -30
640 1200 -30
720 1200 -30
880 1200 -30
1040 1200 -30
1200 1200 -30
1360 1200 -30
0 1360 -30
160 1360 -30
320 1360 -30
480 1360 -30
640 1360 -30
720 1360 -30
880 1360 -30
1040 1360 -30
1200 1360 -30
1360 1360 -30
CELLS 81 729
8 0 1 11 10 100 101 111 110
8 10 11 21 20 110 111 121 120
8 20 21 31 30 120 121 131 130
8 30 31 41 40 130 131 141 140
8 40 41 51 50 140 141 151 150
8 50 51 61 60 150 151 161 160
8 60 61 71 70 160 161 171 170
8 70 71 81 80 170 171 181 180
8 80 81 91 90 180 181 191 190
8 1 2 12 11 101 102 112 111
8 11 12 22 21 111 112 122 121
8 21 22 32 31 121 122 132 131
8 31 32 42 41 131 132 142 141
8 41 42 52 51 141 142 152 151
8 51 52 62 61 151 152 162 161
8 61 62 72 71 161 162 172 171
8 71 72 82 81 171 172 182 181
8 81 82 92 91 181 182 192 191
8 2 3 13 12 102 103 113 112
8 12 13 23 22 112 113 123 122
8 22 23 33 32 122 123 133 132
8 32 33 43 42 132 133 143 142
8 42 43 53 52 142 143 153 152
8 52 53 63 62 152 153 163 162
8 62 63 73 72 162 163 173 172
8 72 73 83 82 172 173 183 182
8 82 83 93 92 182 183 193 192
8 3 4 14 13 103 104 114 113
8 13 14 24 23 113 114 124 123
8 23 24 34 33 123 124 134 133
8 33 34 44 43 133 134 144 143
8 43 44 54 53 143 144 154 153
8 53 54 64 63 153 154 164 163
8 63 64 74 73 163 164 174 173
8 73 74 84 83 173 174 184 183
8 83 84 94 93 183 184 194 193
8 4 5 15 14 104 105 115 114
8 14 15 25 24 114 115 125 124
8 24 25 35 34 124 125 135 134
8 34 35 45 44 134 135 145 144
8 44 45 55 54 144 145 155 154
8 54 55 65 64 154 155 165 164
8 64 65 75 74 164 165 175 174
8 74 75 85 84 174 175 185 184
8 84 85 95 94 184 185 195 194
8 5 6 16 15 105 106 116 115
8 15 16 26 25 115 116 126 125
8 25 26 36 35 125 126 136 135
8 35 36 46 45 135 136 146 145
8 45 46 56 55 145 146 156 155
8 55 56 66 65 155 156 166 165
8 65 66 76 75 165 166 176 175
8 75 76 86 85 175 176 186 185
8 85 86 96 95 185 186 196 195
8 6 7 17 16 106 107 117 116
8 16 17 27 26 116 117 127 126
8 26 27 37 36 126 127 137 136
8 36 37 47 46 136 137 147 146
8 46 47 57 56 146 147 157 156
8 56 57 67 66 156 157 167 166
8 66 67 77 76 166 167 177 176
8 76 77 87 86 176 177 187 186
8 86 87 97 96 186 187 197 196
8 7 8 18 17 107 108 118 117
8 17 18 28 27 117 118 128 127
8 27 28 38 37 127 128 138 137
8 37 38 48 47 137 138 148 147
8 47 48 58 57 147 148 158 157
8 57 58 68 67 157 158 168 167
8 67 68 78 77 167 168 178 177
8 77 78 88 87 177 178 188 187
8 87 88 98 97 187 188 198 197
8 8 9 19 18 108 109 119 118
8 18 19 29 28 118 119 129 128
8 28 29 39 38 128 129 139 138
8 38 39 49 48 138 139 149 148
8 48 49 59 58 148 149 159 158
8 58 59 69 68 158 159 169 168
8 68 69 79 78 168 169 179 178
8 78 79 89 88 178 179 189 188
8 88 89 99 98 188 189 199 198
CELL_TYPES 81
12
12
12
12
12
12
12
12
12
12
12
12
12
12
12
12
12
12
12
12
12
12
12
12
12
12
12
12
12
12
12
12
12
12
12
12
12
12
12
12
12
12
12
12
12
12
12
12
12
12
12
12
12
12
12
12
12
12
12
12
12
12
12
12
12
12
12
12
12
12
12
12
12
12
12
12
12
12
12
12
12
POINT_DATA 200
SCALARS GLOBAL_ID int 1
LOOKUP_TABLE default
-1 
-1 
-1 
-1 
-1 
-1 
-1 
-1 
-1 
-1 
-1 
-1 
-1 
-1 
-1 
-1 
-1 
-1 
-1 
-1 
-1 
-1 
-1 
-1 
-1 
-1 
-1 
-1 
-1 
-1 
-1 
-1 
-1 
-1 
-1 
-1 
-1 
-1 
-1 
-1 
-1 
-1 
-1 
-1 
-1 
-1 
-1 
-1 
-1 
-1 
-1 
-1 
-1 
-1 
-1 
-1 
-1 
-1 
-1 
-1 
-1 
-1 
-1 
-1 
-1 
-1 
-1 
-1 
-1 
-1 
-1 
-1 
-1 
-1 
-1 
-1 
-1 
-1 
-1 
-1 
-1 
-1 
-1 
-1 
-1 
-1 
-1 
-1 
-1 
-1 
-1 
-1 
-1 
-1 
-1 
-1 
-1 
-1 
-1 
-1 
-1 
-1 
-1 
-1 
-1 
-1 
-1 
-1 
-1 
-1 
-1 
-1 
-1 
-1 
-1 
-1 
-1 
-1 
-1 
-1 
-1 
-1 
-1 
-1 
-1 
-1 
-1 
-1 
-1 
-1 
-1 
-1 
-1 
-1 
-1 
-1 
-1 
-1 
-1 
-1 
-1 
-1 
-1 
-1 
-1 
-1 
-1 
-1 
-1 
-1 
-1 
-1 
-1 
-1 
-1 
-1 
-1 
-1 
-1 
-1 
-1 
-1 
-1 
-1 
-1 
-1 
-1 
-1 
-1 
-1 
-1 
-1 
-1 
-1 
-1 
-1 
-1 
-1 
-1 
-1 
-1 
-1 
-1 
-1 
-1 
-1 
-1 
-1 
-1 
-1 
-1 
-1 
-1 
-1 
-1 
-1 
-1 
-1 
-1 
-1 
CELL_DATA 81
SCALARS GLOBAL_ID int 1
LOOKUP_TABLE default
-1 
-1 
-1 
-1 
-1 
-1 
-1 
-1 
-1 
-1 
-1 
-1 
-1 
-1 
-1 
-1 
-1 
-1 
-1 
-1 
-1 
-1 
-1 
-1 
-1 
-1 
-1 
-1 
-1 
-1 
-1 
-1 
-1 
-1 
-1 
-1 
-1 
-1 
-1 
-1 
-1 
-1 
-1 
-1 
-1 
-1 
-1 
-1 
-1 
-1 
-1 
-1 
-1 
-1 
-1 
-1 
-1 
-1 
-1 
-1 
-1 
-1 
-1 
-1 
-1 
-1 
-1 
-1 
-1 
-1 
-1 
-1 
-1 
-1 
-1 
-1 
-1 
-1 
-1 
-1 
-1 
SCALARS P double 1
LOOKUP_TABLE default
4540 
4459 
4407 
4372 
4349 
4332 
4311 
4294 
4282 
4459 
4425 
4392 
4362 
4342 
4325 
4305 
4288 
4277 
4407 
4392 
4369 
4345 
4329 
4313 
4293 
4276 
4267 
4372 
4362 
4345 
4327 
4312 
4297 
4277 
4260 
4255 
4349 
4341 
4329 
4312 
4297 
4282 
4263 
4247 
4243 
4331 
4325 
4313 
4296 
4282 
4267 
4246 
4235 
4231 
4310 
4304 
4293 
4277 
4262 
4246 
4229 
4219 
4212 
4293 
4286 
4274 
4259 
4247 
4235 
4219 
4202 
4186 
4281 
4276 
4267 
4254 
4243 
4231 
4212 
4186 
4143 
SCALARS So double 1
LOOKUP_TABLE default
0.2947 
0.304 
0.301 
0.3371 
0.3216 
0.3663 
0.4265 
0.5668 
0.8191 
0.304 
0.2999 
0.3226 
0.3515 
0.3335 
0.3802 
0.4434 
0.604 
0.8409 
0.301 
0.3226 
0.3332 
0.3407 
0.3576 
0.3993 
0.4718 
0.6681 
0.8622 
0.337 
0.3512 
0.3406 
0.3706 
0.3853 
0.4251 
0.5212 
0.758 
0.8743 
0.3214 
0.3333 
0.3574 
0.3852 
0.3968 
0.4404 
0.5566 
0.8079 
0.8774 
0.3697 
0.3838 
0.4032 
0.4313 
0.4483 
0.53 
0.7264 
0.864 
0.8791 
0.4354 
0.4542 
0.486 
0.5422 
0.5847 
0.7401 
0.8527 
0.877 
0.8795 
0.5917 
0.6333 
0.7011 
0.7857 
0.8277 
0.8671 
0.8772 
0.8792 
0.8795 
0.8344 
0.8521 
0.8679 
0.8761 
0.8782 
0.8792 
0.8795 
0.8795 
0.8796 
SCALARS Sw double 1
LOOKUP_TABLE default
0.704 
0.6942 
0.699 
0.6556 
0.6784 
0.6337 
0.5735 
0.4332 
0.1809 
0.6942 
0.7001 
0.6727 
0.6387 
0.6665 
0.6198 
0.5566 
0.396 
0.1591 
0.699 
0.6727 
0.6618 
0.6593 
0.6424 
0.6007 
0.5282 
0.3319 
0.1378 
0.6558 
0.6391 
0.6594 
0.6294 
0.6147 
0.5749 
0.4788 
0.242 
0.1257 
0.6786 
0.6667 
0.6426 
0.6148 
0.6032 
0.5596 
0.4434 
0.1921 
0.1226 
0.6303 
0.6162 
0.5968 
0.5687 
0.5517 
0.47 
0.2736 
0.136 
0.1209 
0.5646 
0.5458 
0.514 
0.4578 
0.4153 
0.2599 
0.1473 
0.123 
0.1205 
0.4083 
0.3667 
0.2989 
0.2143 
0.1723 
0.1329 
0.1228 
0.1208 
0.1205 
0.1656 
0.1479 
0.1321 
0.1239 
0.1218 
0.1208 
0.1205 
0.1205 
0.1204 
SCALARS Sg double 1
LOOKUP_TABLE default
0.001291 
0.001832 
0 
0.00729 
0 
0 
0 
0 
0 
0.001833 
0 
0.004678 
0.00975 
0 
0 
0 
0 
0 
0 
0.004673 
0.004981 
0 
0 
0 
0 
0 
0 
0.00726 
0.00968 
0 
0 
0 
0 
0 
0 
0 
0 
0 
0 
0 
0 
0 
0 
0 
0 
0 
0 
0 
0 
0 
0 
0 
0 
0 
0 
0 
0 
0 
0 
0 
0 
0 
0 
0 
0 
0 
0 
0 
0 
0 
0 
0 
0 
0 
0 
0 
0 
0 
0 
0 
0 
