# vtk DataFile Version 3.0
MOAB 5.4.1
ASCII
DATASET UNSTRUCTURED_GRID
POINTS 968 double
0 0 0
1 0 0
2 0 0
3 0 0
4 0 0
5 0 0
6 0 0
7 0 0
8 0 0
9 0 0
10 0 0
11 0 0
12 0 0
13 0 0
14 0 0
15 0 0
16 0 0
17 0 0
18 0 0
19 0 0
20 0 0
21 0 0
0 1 0
1 1 0
2 1 0
3 1 0
4 1 0
5 1 0
6 1 0
7 1 0
8 1 0
9 1 0
10 1 0
11 1 0
12 1 0
13 1 0
14 1 0
15 1 0
16 1 0
17 1 0
18 1 0
19 1 0
20 1 0
21 1 0
0 2 0
1 2 0
2 2 0
3 2 0
4 2 0
5 2 0
6 2 0
7 2 0
8 2 0
9 2 0
10 2 0
11 2 0
12 2 0
13 2 0
14 2 0
15 2 0
16 2 0
17 2 0
18 2 0
19 2 0
20 2 0
21 2 0
0 3 0
1 3 0
2 3 0
3 3 0
4 3 0
5 3 0
6 3 0
7 3 0
8 3 0
9 3 0
10 3 0
11 3 0
12 3 0
13 3 0
14 3 0
15 3 0
16 3 0
17 3 0
18 3 0
19 3 0
20 3 0
21 3 0
0 4 0
1 4 0
2 4 0
3 4 0
4 4 0
5 4 0
6 4 0
7 4 0
8 4 0
9 4 0
10 4 0
11 4 0
12 4 0
13 4 0
14 4 0
15 4 0
16 4 0
17 4 0
18 4 0
19 4 0
20 4 0
21 4 0
0 5 0
1 5 0
2 5 0
3 5 0
4 5 0
5 5 0
6 5 0
7 5 0
8 5 0
9 5 0
10 5 0
11 5 0
12 5 0
13 5 0
14 5 0
15 5 0
16 5 0
17 5 0
18 5 0
19 5 0
20 5 0
21 5 0
0 6 0
1 6 0
2 6 0
3 6 0
4 6 0
5 6 0
6 6 0
7 6 0
8 6 0
9 6 0
10 6 0
11 6 0
12 6 0
13 6 0
14 6 0
15 6 0
16 6 0
17 6 0
18 6 0
19 6 0
20 6 0
21 6 0
0 7 0
1 7 0
2 7 0
3 7 0
4 7 0
5 7 0
6 7 0
7 7 0
8 7 0
9 7 0
10 7 0
11 7 0
12 7 0
13 7 0
14 7 0
15 7 0
16 7 0
17 7 0
18 7 0
19 7 0
20 7 0
21 7 0
0 8 0
1 8 0
2 8 0
3 8 0
4 8 0
5 8 0
6 8 0
7 8 0
8 8 0
9 8 0
10 8 0
11 8 0
12 8 0
13 8 0
14 8 0
15 8 0
16 8 0
17 8 0
18 8 0
19 8 0
20 8 0
21 8 0
0 9 0
1 9 0
2 9 0
3 9 0
4 9 0
5 9 0
6 9 0
7 9 0
8 9 0
9 9 0
10 9 0
11 9 0
12 9 0
13 9 0
14 9 0
15 9 0
16 9 0
17 9 0
18 9 0
19 9 0
20 9 0
21 9 0
0 10 0
1 10 0
2 10 0
3 10 0
4 10 0
5 10 0
6 10 0
7 10 0
8 10 0
9 10 0
10 10 0
11 10 0
12 10 0
13 10 0
14 10 0
15 10 0
16 10 0
17 10 0
18 10 0
19 10 0
20 10 0
21 10 0
0 11 0
1 11 0
2 11 0
3 11 0
4 11 0
5 11 0
6 11 0
7 11 0
8 11 0
9 11 0
10 11 0
11 11 0
12 11 0
13 11 0
14 11 0
15 11 0
16 11 0
17 11 0
18 11 0
19 11 0
20 11 0
21 11 0
0 12 0
1 12 0
2 12 0
3 12 0
4 12 0
5 12 0
6 12 0
7 12 0
8 12 0
9 12 0
10 12 0
11 12 0
12 12 0
13 12 0
14 12 0
15 12 0
16 12 0
17 12 0
18 12 0
19 12 0
20 12 0
21 12 0
0 13 0
1 13 0
2 13 0
3 13 0
4 13 0
5 13 0
6 13 0
7 13 0
8 13 0
9 13 0
10 13 0
11 13 0
12 13 0
13 13 0
14 13 0
15 13 0
16 13 0
17 13 0
18 13 0
19 13 0
20 13 0
21 13 0
0 14 0
1 14 0
2 14 0
3 14 0
4 14 0
5 14 0
6 14 0
7 14 0
8 14 0
9 14 0
10 14 0
11 14 0
12 14 0
13 14 0
14 14 0
15 14 0
16 14 0
17 14 0
18 14 0
19 14 0
20 14 0
21 14 0
0 15 0
1 15 0
2 15 0
3 15 0
4 15 0
5 15 0
6 15 0
7 15 0
8 15 0
9 15 0
10 15 0
11 15 0
12 15 0
13 15 0
14 15 0
15 15 0
16 15 0
17 15 0
18 15 0
19 15 0
20 15 0
21 15 0
0 16 0
1 16 0
2 16 0
3 16 0
4 16 0
5 16 0
6 16 0
7 16 0
8 16 0
9 16 0
10 16 0
11 16 0
12 16 0
13 16 0
14 16 0
15 16 0
16 16 0
17 16 0
18 16 0
19 16 0
20 16 0
21 16 0
0 17 0
1 17 0
2 17 0
3 17 0
4 17 0
5 17 0
6 17 0
7 17 0
8 17 0
9 17 0
10 17 0
11 17 0
12 17 0
13 17 0
14 17 0
15 17 0
16 17 0
17 17 0
18 17 0
19 17 0
20 17 0
21 17 0
0 18 0
1 18 0
2 18 0
3 18 0
4 18 0
5 18 0
6 18 0
7 18 0
8 18 0
9 18 0
10 18 0
11 18 0
12 18 0
13 18 0
14 18 0
15 18 0
16 18 0
17 18 0
18 18 0
19 18 0
20 18 0
21 18 0
0 19 0
1 19 0
2 19 0
3 19 0
4 19 0
5 19 0
6 19 0
7 19 0
8 19 0
9 19 0
10 19 0
11 19 0
12 19 0
13 19 0
14 19 0
15 19 0
16 19 0
17 19 0
18 19 0
19 19 0
20 19 0
21 19 0
0 20 0
1 20 0
2 20 0
3 20 0
4 20 0
5 20 0
6 20 0
7 20 0
8 20 0
9 20 0
10 20 0
11 20 0
12 20 0
13 20 0
14 20 0
15 20 0
16 20 0
17 20 0
18 20 0
19 20 0
20 20 0
21 20 0
0 21 0
1 21 0
2 21 0
3 21 0
4 21 0
5 21 0
6 21 0
7 21 0
8 21 0
9 21 0
10 21 0
11 21 0
12 21 0
13 21 0
14 21 0
15 21 0
16 21 0
17 21 0
18 21 0
19 21 0
20 21 0
21 21 0
0 0 1
1 0 1
2 0 1
3 0 1
4 0 1
5 0 1
6 0 1
7 0 1
8 0 1
9 0 1
10 0 1
11 0 1
12 0 1
13 0 1
14 0 1
15 0 1
16 0 1
17 0 1
18 0 1
19 0 1
20 0 1
21 0 1
0 1 1
1 1 1
2 1 1
3 1 1
4 1 1
5 1 1
6 1 1
7 1 1
8 1 1
9 1 1
10 1 1
11 1 1
12 1 1
13 1 1
14 1 1
15 1 1
16 1 1
17 1 1
18 1 1
19 1 1
20 1 1
21 1 1
0 2 1
1 2 1
2 2 1
3 2 1
4 2 1
5 2 1
6 2 1
7 2 1
8 2 1
9 2 1
10 2 1
11 2 1
12 2 1
13 2 1
14 2 1
15 2 1
16 2 1
17 2 1
18 2 1
19 2 1
20 2 1
21 2 1
0 3 1
1 3 1
2 3 1
3 3 1
4 3 1
5 3 1
6 3 1
7 3 1
8 3 1
9 3 1
10 3 1
11 3 1
12 3 1
13 3 1
14 3 1
15 3 1
16 3 1
17 3 1
18 3 1
19 3 1
20 3 1
21 3 1
0 4 1
1 4 1
2 4 1
3 4 1
4 4 1
5 4 1
6 4 1
7 4 1
8 4 1
9 4 1
10 4 1
11 4 1
12 4 1
13 4 1
14 4 1
15 4 1
16 4 1
17 4 1
18 4 1
19 4 1
20 4 1
21 4 1
0 5 1
1 5 1
2 5 1
3 5 1
4 5 1
5 5 1
6 5 1
7 5 1
8 5 1
9 5 1
10 5 1
11 5 1
12 5 1
13 5 1
14 5 1
15 5 1
16 5 1
17 5 1
18 5 1
19 5 1
20 5 1
21 5 1
0 6 1
1 6 1
2 6 1
3 6 1
4 6 1
5 6 1
6 6 1
7 6 1
8 6 1
9 6 1
10 6 1
11 6 1
12 6 1
13 6 1
14 6 1
15 6 1
16 6 1
17 6 1
18 6 1
19 6 1
20 6 1
21 6 1
0 7 1
1 7 1
2 7 1
3 7 1
4 7 1
5 7 1
6 7 1
7 7 1
8 7 1
9 7 1
10 7 1
11 7 1
12 7 1
13 7 1
14 7 1
15 7 1
16 7 1
17 7 1
18 7 1
19 7 1
20 7 1
21 7 1
0 8 1
1 8 1
2 8 1
3 8 1
4 8 1
5 8 1
6 8 1
7 8 1
8 8 1
9 8 1
10 8 1
11 8 1
12 8 1
13 8 1
14 8 1
15 8 1
16 8 1
17 8 1
18 8 1
19 8 1
20 8 1
21 8 1
0 9 1
1 9 1
2 9 1
3 9 1
4 9 1
5 9 1
6 9 1
7 9 1
8 9 1
9 9 1
10 9 1
11 9 1
12 9 1
13 9 1
14 9 1
15 9 1
16 9 1
17 9 1
18 9 1
19 9 1
20 9 1
21 9 1
0 10 1
1 10 1
2 10 1
3 10 1
4 10 1
5 10 1
6 10 1
7 10 1
8 10 1
9 10 1
10 10 1
11 10 1
12 10 1
13 10 1
14 10 1
15 10 1
16 10 1
17 10 1
18 10 1
19 10 1
20 10 1
21 10 1
0 11 1
1 11 1
2 11 1
3 11 1
4 11 1
5 11 1
6 11 1
7 11 1
8 11 1
9 11 1
10 11 1
11 11 1
12 11 1
13 11 1
14 11 1
15 11 1
16 11 1
17 11 1
18 11 1
19 11 1
20 11 1
21 11 1
0 12 1
1 12 1
2 12 1
3 12 1
4 12 1
5 12 1
6 12 1
7 12 1
8 12 1
9 12 1
10 12 1
11 12 1
12 12 1
13 12 1
14 12 1
15 12 1
16 12 1
17 12 1
18 12 1
19 12 1
20 12 1
21 12 1
0 13 1
1 13 1
2 13 1
3 13 1
4 13 1
5 13 1
6 13 1
7 13 1
8 13 1
9 13 1
10 13 1
11 13 1
12 13 1
13 13 1
14 13 1
15 13 1
16 13 1
17 13 1
18 13 1
19 13 1
20 13 1
21 13 1
0 14 1
1 14 1
2 14 1
3 14 1
4 14 1
5 14 1
6 14 1
7 14 1
8 14 1
9 14 1
10 14 1
11 14 1
12 14 1
13 14 1
14 14 1
15 14 1
16 14 1
17 14 1
18 14 1
19 14 1
20 14 1
21 14 1
0 15 1
1 15 1
2 15 1
3 15 1
4 15 1
5 15 1
6 15 1
7 15 1
8 15 1
9 15 1
10 15 1
11 15 1
12 15 1
13 15 1
14 15 1
15 15 1
16 15 1
17 15 1
18 15 1
19 15 1
20 15 1
21 15 1
0 16 1
1 16 1
2 16 1
3 16 1
4 16 1
5 16 1
6 16 1
7 16 1
8 16 1
9 16 1
10 16 1
11 16 1
12 16 1
13 16 1
14 16 1
15 16 1
16 16 1
17 16 1
18 16 1
19 16 1
20 16 1
21 16 1
0 17 1
1 17 1
2 17 1
3 17 1
4 17 1
5 17 1
6 17 1
7 17 1
8 17 1
9 17 1
10 17 1
11 17 1
12 17 1
13 17 1
14 17 1
15 17 1
16 17 1
17 17 1
18 17 1
19 17 1
20 17 1
21 17 1
0 18 1
1 18 1
2 18 1
3 18 1
4 18 1
5 18 1
6 18 1
7 18 1
8 18 1
9 18 1
10 18 1
11 18 1
12 18 1
13 18 1
14 18 1
15 18 1
16 18 1
17 18 1
18 18 1
19 18 1
20 18 1
21 18 1
0 19 1
1 19 1
2 19 1
3 19 1
4 19 1
5 19 1
6 19 1
7 19 1
8 19 1
9 19 1
10 19 1
11 19 1
12 19 1
13 19 1
14 19 1
15 19 1
16 19 1
17 19 1
18 19 1
19 19 1
20 19 1
21 19 1
0 20 1
1 20 1
2 20 1
3 20 1
4 20 1
5 20 1
6 20 1
7 20 1
8 20 1
9 20 1
10 20 1
11 20 1
12 20 1
13 20 1
14 20 1
15 20 1
16 20 1
17 20 1
18 20 1
19 20 1
20 20 1
21 20 1
0 21 1
1 21 1
2 21 1
3 21 1
4 21 1
5 21 1
6 21 1
7 21 1
8 21 1
9 21 1
10 21 1
11 21 1
12 21 1
13 21 1
14 21 1
15 21 1
16 21 1
17 21 1
18 21 1
19 21 1
20 21 1
21 21 1
CELLS 441 3969
8 0 1 23 22 484 485 507 506
8 22 23 45 44 506 507 529 528
8 44 45 67 66 528 529 551 550
8 66 67 89 88 550 551 573 572
8 88 89 111 110 572 573 595 594
8 110 111 133 132 594 595 617 616
8 132 133 155 154 616 617 639 638
8 154 155 177 176 638 639 661 660
8 176 177 199 198 660 661 683 682
8 198 199 221 220 682 683 705 704
8 220 221 243 242 704 705 727 726
8 242 243 265 264 726 727 749 748
8 264 265 287 286 748 749 771 770
8 286 287 309 308 770 771 793 792
8 308 309 331 330 792 793 815 814
8 330 331 353 352 814 815 837 836
8 352 353 375 374 836 837 859 858
8 374 375 397 396 858 859 881 880
8 396 397 419 418 880 881 903 902
8 418 419 441 440 902 903 925 924
8 440 441 463 462 924 925 947 946
8 1 2 24 23 485 486 508 507
8 23 24 46 45 507 508 530 529
8 45 46 68 67 529 530 552 551
8 67 68 90 89 551 552 574 573
8 89 90 112 111 573 574 596 595
8 111 112 134 133 595 596 618 617
8 133 134 156 155 617 618 640 639
8 155 156 178 177 639 640 662 661
8 177 178 200 199 661 662 684 683
8 199 200 222 221 683 684 706 705
8 221 222 244 243 705 706 728 727
8 243 244 266 265 727 728 750 749
8 265 266 288 287 749 750 772 771
8 287 288 310 309 771 772 794 793
8 309 310 332 331 793 794 816 815
8 331 332 354 353 815 816 838 837
8 353 354 376 375 837 838 860 859
8 375 376 398 397 859 860 882 881
8 397 398 420 419 881 882 904 903
8 419 420 442 441 903 904 926 925
8 441 442 464 463 925 926 948 947
8 2 3 25 24 486 487 509 508
8 24 25 47 46 508 509 531 530
8 46 47 69 68 530 531 553 552
8 68 69 91 90 552 553 575 574
8 90 91 113 112 574 575 597 596
8 112 113 135 134 596 597 619 618
8 134 135 157 156 618 619 641 640
8 156 157 179 178 640 641 663 662
8 178 179 201 200 662 663 685 684
8 200 201 223 222 684 685 707 706
8 222 223 245 244 706 707 729 728
8 244 245 267 266 728 729 751 750
8 266 267 289 288 750 751 773 772
8 288 289 311 310 772 773 795 794
8 310 311 333 332 794 795 817 816
8 332 333 355 354 816 817 839 838
8 354 355 377 376 838 839 861 860
8 376 377 399 398 860 861 883 882
8 398 399 421 420 882 883 905 904
8 420 421 443 442 904 905 927 926
8 442 443 465 464 926 927 949 948
8 3 4 26 25 487 488 510 509
8 25 26 48 47 509 510 532 531
8 47 48 70 69 531 532 554 553
8 69 70 92 91 553 554 576 575
8 91 92 114 113 575 576 598 597
8 113 114 136 135 597 598 620 619
8 135 136 158 157 619 620 642 641
8 157 158 180 179 641 642 664 663
8 179 180 202 201 663 664 686 685
8 201 202 224 223 685 686 708 707
8 223 224 246 245 707 708 730 729
8 245 246 268 267 729 730 752 751
8 267 268 290 289 751 752 774 773
8 289 290 312 311 773 774 796 795
8 311 312 334 333 795 796 818 817
8 333 334 356 355 817 818 840 839
8 355 356 378 377 839 840 862 861
8 377 378 400 399 861 862 884 883
8 399 400 422 421 883 884 906 905
8 421 422 444 443 905 906 928 927
8 443 444 466 465 927 928 950 949
8 4 5 27 26 488 489 511 510
8 26 27 49 48 510 511 533 532
8 48 49 71 70 532 533 555 554
8 70 71 93 92 554 555 577 576
8 92 93 115 114 576 577 599 598
8 114 115 137 136 598 599 621 620
8 136 137 159 158 620 621 643 642
8 158 159 181 180 642 643 665 664
[...]
POINT_DATA 968
SCALARS GLOBAL_ID int 1
LOOKUP_TABLE default
-1 
-1 
-1 
-1 
-1 
-1 
-1 
-1 
-1 
-1 
-1 
-1 
-1 
-1 
-1 
-1 
-1 
-1 
-1 
-1 
-1 
-1 
-1 
-1 
-1 
-1 
-1 
-1 
-1 
-1 
-1 
-1 
-1 
-1 
-1 
-1 
-1 
-1 
-1 
-1 
-1 
-1 
-1 
-1 
-1 
-1 
-1 
-1 
-1 
-1 
-1 
-1 
-1 
-1 
-1 
-1 
-1 
-1 
-1 
-1 
-1 
-1 
-1 
-1 
-1 
-1 
-1 
-1 
-1 
-1 
-1 
-1 
-1 
-1 
-1 
-1 
-1 
-1 
-1 
-1 
-1 
-1 
-1 
-1 
-1 
-1 
-1 
-1 
-1 
-1 
-1 
-1 
-1 
-1 
-1 
-1 
-1 
-1 
-1 
-1 
-1 
-1 
-1 
-1 
-1 
-1 
-1 
-1 
-1 
-1 
-1 
-1 
-1 
-1 
-1 
-1 
-1 
-1 
-1 
-1 
-1 
-1 
-1 
-1 
-1 
-1 
-1 
-1 
-1 
-1 
-1 
-1 
-1 
-1 
-1 
-1 
-1 
-1 
-1 
-1 
-1 
-1 
-1 
-1 
-1 
-1 
-1 
-1 
-1 
-1 
-1 
-1 
-1 
-1 
-1 
-1 
-1 
-1 
-1 
-1 
-1 
-1 
-1 
-1 
-1 
-1 
-1 
-1 
-1 
-1 
-1 
-1 
-1 
-1 
-1 
-1 
-1 
-1 
-1 
-1 
-1 
-1 
-1 
-1 
-1 
-1 
-1 
-1 
-1 
-1 
-1 
-1 
-1 
-1 
-1 
-1 
-1 
-1 
-1 
-1 
-1 
-1 
-1 
-1 
-1 
-1 
-1 
-1 
-1 
-1 
-1 
-1 
-1 
-1 
-1 
-1 
-1 
-1 
-1 
-1 
-1 
-1 
-1 
-1 
-1 
-1 
-1 
-1 
-1 
-1 
-1 
-1 
-1 
-1 
-1 
-1 
-1 
-1 
-1 
-1 
-1 
-1 
-1 
-1 
-1 
-1 
-1 
-1 
-1 
-1 
-1 
-1 
-1 
-1 
-1 
-1 
-1 
-1 
-1 
-1 
-1 
-1 
-1 
-1 
-1 
-1 
-1 
-1 
-1 
-1 
-1 
-1 
-1 
-1 
-1 
-1 
-1 
-1 
-1 
-1 
-1 
-1 
-1 
-1 
-1 
-1 
-1 
-1 
-1 
-1 
-1 
-1 
-1 
-1 
-1 
-1 
-1 
-1 
-1 
-1 
-1 
-1 
-1 
-1 
-1 
-1 
-1 
-1 
-1 
-1 
-1 
-1 
-1 
-1 
-1 
-1 
-1 
-1 
-1 
-1 
-1 
-1 
-1 
-1 
-1 
-1 
-1 
-1 
-1 
-1 
-1 
-1 
-1 
-1 
-1 
-1 
-1 
-1 
-1 
-1 
-1 
-1 
-1 
-1 
-1 
-1 
-1 
-1 
-1 
-1 
-1 
-1 
-1 
-1 
-1 
-1 
-1 
-1 
-1 
-1 
-1 
-1 
-1 
-1 
-1 
-1 
-1 
-1 
-1 
-1 
-1 
-1 
-1 
-1 
-1 
-1 
-1 
-1 
-1 
-1 
-1 
-1 
-1 
-1 
-1 
-1 
-1 
-1 
-1 
-1 
-1 
-1 
-1 
-1 
-1 
-1 
-1 
-1 
-1 
-1 
-1 
-1 
-1 
-1 
-1 
-1 
-1 
-1 
-1 
-1 
-1 
-1 
-1 
-1 
-1 
-1 
-1 
-1 
-1 
-1 
-1 
-1 
-1 
-1 
-1 
-1 
-1 
-1 
-1 
-1 
-1 
-1 
-1 
-1 
-1 
-1 
-1 
-1 
-1 
-1 
-1 
-1 
-1 
-1 
-1 
-1 
-1 
-1 
-1 
-1 
-1 
-1 
-1 
-1 
-1 
-1 
-1 
-1 
-1 
-1 
-1 
-1 
-1 
-1 
-1 
-1 
-1 
-1 
-1 
-1 
-1 
-1 
-1 
-1 
-1 
-1 
-1 
-1 
-1 
-1 
-1 
-1 
-1 
-1 
-1 
-1 
-1 
-1 
-1 
-1 
-1 
-1 
-1 
-1 
-1 
-1 
-1 
-1 
-1 
-1 
-1 
-1 
-1 
-1 
-1 
-1 
-1 
-1 
-1 
-1 
-1 
-1 
-1 
-1 
-1 
-1 
-1 
-1 
-1 
-1 
-1 
-1 
-1 
-1 
-1 
-1 
-1 
-1 
-1 
-1 
-1 
-1 
-1 
-1 
-1 
-1 
-1 
-1 
-1 
-1 
-1 
-1 
-1 
-1 
-1 
-1 
-1 
-1 
-1 
-1 
-1 
-1 
-1 
-1 
-1 
-1 
-1 
-1 
-1 
-1 
-1 
-1 
-1 
-1 
-1 
-1 
-1 
-1 
-1 
-1 
-1 
-1 
-1 
-1 
-1 
-1 
-1 
-1 
-1 
-1 
-1 
-1 
-1 
-1 
-1 
-1 
-1 
-1 
-1 
-1 
-1 
-1 
-1 
-1 
-1 
-1 
-1 
-1 
-1 
-1 
-1 
-1 
-1 
-1 
-1 
-1 
-1 
-1 
-1 
-1 
-1 
-1 
-1 
-1 
-1 
-1 
-1 
-1 
-1 
-1 
-1 
-1 
-1 
-1 
-1 
-1 
-1 
-1 
-1 
-1 
-1 
-1 
-1 
-1 
-1 
-1 
-1 
-1 
-1 
-1 
-1 
-1 
-1 
-1 
-1 
-1 
-1 
-1 
-1 
-1 
-1 
-1 
-1 
-1 
-1 
-1 
-1 
-1 
-1 
-1 
-1 
-1 
-1 
-1 
-1 
-1 
-1 
-1 
-1 
-1 
-1 
-1 
-1 
-1 
-1 
-1 
-1 
-1 
-1 
-1 
-1 
-1 
-1 
-1 
-1 
-1 
-1 
-1 
-1 
-1 
-1 
-1 
-1 
-1 
-1 
-1 
-1 
-1 
-1 
-1 
-1 
-1 
-1 
-1 
-1 
-1 
-1 
-1 
-1 
-1 
-1 
-1 
-1 
-1 
-1 
-1 
-1 
-1 
-1 
-1 
-1 
-1 
-1 
-1 
-1 
-1 
-1 
-1 
-1 
-1 
-1 
-1 
-1 
-1 
-1 
-1 
-1 
-1 
-1 
-1 
-1 
-1 
-1 
-1 
-1 
-1 
-1 
-1 
-1 
-1 
-1 
-1 
-1 
-1 
-1 
-1 
-1 
-1 
-1 
-1 
-1 
-1 
-1 
-1 
-1 
-1 
-1 
-1 
-1 
-1 
-1 
-1 
-1 
-1 
-1 
-1 
-1 
-1 
-1 
-1 
-1 
-1 
-1 
-1 
-1 
-1 
-1 
-1 
-1 
-1 
-1 
-1 
-1 
-1 
-1 
-1 
-1 
-1 
-1 
-1 
-1 
-1 
-1 
-1 
-1 
-1 
-1 
-1 
-1 
-1 
-1 
-1 
-1 
-1 
-1 
-1 
-1 
-1 
-1 
-1 
-1 
-1 
-1 
-1 
-1 
-1 
-1 
-1 
-1 
-1 
-1 
-1 
-1 
-1 
-1 
-1 
-1 
-1 
-1 
-1 
-1 
-1 
-1 
-1 
-1 
-1 
-1 
-1 
-1 
-1 
-1 
-1 
-1 
-1 
-1 
-1 
-1 
-1 
-1 
-1 
-1 
-1 
-1 
-1 
-1 
-1 
-1 
-1 
-1 
-1 
-1 
-1 
-1 
-1 
-1 
-1 
-1 
-1 
-1 
-1 
-1 
-1 
-1 
-1 
-1 
-1 
-1 
-1 
-1 
-1 
-1 
-1 
-1 
-1 
-1 
-1 
-1 
-1 
-1 
-1 
-1 
-1 
-1 
-1 
-1 
-1 
-1 
-1 
-1 
-1 
-1 
-1 
-1 
-1 
-1 
-1 
-1 
-1 
-1 
-1 
-1 
-1 
-1 
-1 
-1 
-1 
-1 
-1 
-1 
-1 
-1 
-1 
-1 
-1 
-1 
-1 
-1 
-1 
-1 
-1 
-1 
-1 
-1 
-1 
-1 
-1 
-1 
-1 
-1 
-1 
-1 
-1 
-1 
-1 
-1 
-1 
-1 
-1 
-1 
-1 
-1 
-1 
-1 
-1 
-1 
-1 
-1 
-1 
CELL_DATA 441
SCALARS GLOBAL_ID int 1
LOOKUP_TABLE default
-1 
-1 
-1 
-1 
-1 
-1 
-1 
-1 
-1 
-1 
-1 
-1 
-1 
-1 
-1 
-1 
-1 
-1 
-1 
-1 
-1 
-1 
-1 
-1 
-1 
-1 
-1 
-1 
-1 
-1 
-1 
-1 
-1 
-1 
-1 
-1 
-1 
-1 
-1 
-1 
-1 
-1 
-1 
-1 
-1 
-1 
-1 
-1 
-1 
-1 
-1 
-1 
-1 
-1 
-1 
-1 
-1 
-1 
-1 
-1 
-1 
-1 
-1 
-1 
-1 
-1 
-1 
-1 
-1 
-1 
-1 
-1 
-1 
-1 
-1 
-1 
-1 
-1 
-1 
-1 
-1 
-1 
-1 
-1 
-1 
-1 
-1 
-1 
-1 
-1 
-1 
-1 
-1 
-1 
-1 
-1 
-1 
-1 
-1 
-1 
-1 
-1 
-1 
-1 
-1 
-1 
-1 
-1 
-1 
-1 
-1 
-1 
-1 
-1 
-1 
-1 
-1 
-1 
-1 
-1 
-1 
-1 
-1 
-1 
-1 
-1 
-1 
-1 
-1 
-1 
-1 
-1 
-1 
-1 
-1 
-1 
-1 
-1 
-1 
-1 
-1 
-1 
-1 
-1 
-1 
-1 
-1 
-1 
-1 
-1 
-1 
-1 
-1 
-1 
-1 
-1 
-1 
-1 
-1 
-1 
-1 
-1 
-1 
-1 
-1 
-1 
-1 
-1 
-1 
-1 
-1 
-1 
-1 
-1 
-1 
-1 
-1 
-1 
-1 
-1 
-1 
-1 
-1 
-1 
-1 
-1 
-1 
-1 
-1 
-1 
-1 
-1 
-1 
-1 
-1 
-1 
-1 
-1 
-1 
-1 
-1 
-1 
-1 
-1 
-1 
-1 
-1 
-1 
-1 
-1 
-1 
-1 
-1 
-1 
-1 
-1 
-1 
-1 
-1 
-1 
-1 
-1 
-1 
-1 
-1 
-1 
-1 
-1 
-1 
-1 
-1 
-1 
-1 
-1 
-1 
-1 
-1 
-1 
-1 
-1 
-1 
-1 
-1 
-1 
-1 
-1 
-1 
-1 
-1 
-1 
-1 
-1 
-1 
-1 
-1 
-1 
-1 
-1 
-1 
-1 
-1 
-1 
-1 
-1 
-1 
-1 
-1 
-1 
-1 
-1 
-1 
-1 
-1 
-1 
-1 
-1 
-1 
-1 
-1 
-1 
-1 
-1 
-1 
-1 
-1 
-1 
-1 
-1 
-1 
-1 
-1 
-1 
-1 
-1 
-1 
-1 
-1 
-1 
-1 
-1 
-1 
-1 
-1 
-1 
-1 
-1 
-1 
-1 
-1 
-1 
-1 
-1 
-1 
-1 
-1 
-1 
-1 
-1 
-1 
-1 
-1 
-1 
-1 
-1 
-1 
-1 
-1 
-1 
-1 
-1 
-1 
-1 
-1 
-1 
-1 
-1 
-1 
-1 
-1 
-1 
-1 
-1 
-1 
-1 
-1 
-1 
-1 
-1 
-1 
-1 
-1 
-1 
-1 
-1 
-1 
-1 
-1 
-1 
-1 
-1 
-1 
-1 
-1 
-1 
-1 
-1 
-1 
-1 
-1 
-1 
-1 
-1 
-1 
-1 
-1 
-1 
-1 
-1 
-1 
-1 
-1 
-1 
-1 
-1 
-1 
-1 
-1 
-1 
-1 
-1 
-1 
-1 
-1 
-1 
-1 
-1 
-1 
-1 
-1 
-1 
-1 
-1 
-1 
-1 
-1 
-1 
-1 
-1 
-1 
-1 
-1 
-1 
-1 
-1 
-1 
-1 
-1 
-1 
-1 
-1 
-1 
-1 
-1 
-1 
-1 
-1 
-1 
-1 
-1 
-1 
-1 
-1 
-1 
-1 
-1 
-1 
-1 
-1 
-1 
-1 
-1 
SCALARS pressure double 1
LOOKUP_TABLE default
100 
92.81962312 
88.38726004 
85.24477637 
82.79033215 
80.74066854 
78.94334643 
77.30756819 
75.77656326 
74.31591485 
72.9080676 
71.5493139 
70.24772545 
69.02098702 
67.89310179 
66.88943609 
66.03138619 
65.33397067 
64.80618865 
64.45246342 
64.2738952 
92.81962312 
89.9364196 
87.01131054 
84.48161395 
82.31787531 
80.42641283 
78.72455469 
77.14940061 
75.65602054 
74.21560684 
72.81371093 
71.44877239 
70.13109549 
68.88171403 
67.72962909 
66.70556991 
65.83334936 
65.1275797 
64.59558986 
64.24008174 
64.06092829 
88.38726004 
87.01131054 
85.1645113 
83.28299267 
81.50879319 
79.86275603 
78.32324948 
76.85710415 
75.43311882 
74.02990608 
72.63764986 
71.25801739 
69.90473416 
68.60499192 
67.39906775 
66.33172938 
65.4315066 
64.71064689 
64.17192909 
63.814065 
63.6343359 
85.24477637 
84.48161395 
83.28299267 
81.91208698 
80.5105555 
79.13524743 
77.79462953 
76.4717243 
75.14119087 
73.78730062 
72.4049791 
70.9985827 
69.58389079 
68.19467186 
66.89110706 
65.75276536 
64.81297192 
64.07476804 
63.53075922 
63.17255142 
62.99345327 
82.79033215 
82.31787531 
81.50879319 
80.5105555 
79.42815755 
78.31819935 
77.19633509 
76.04467273 
74.82571385 
73.52830626 
72.15333948 
70.70589211 
69.19726396 
67.65940465 
66.17944355 
64.93741154 
63.95554562 
63.20783243 
62.66704921 
62.3145043 
62.13893462 
80.74066854 
80.42641283 
79.86275603 
79.13524743 
78.31819935 
77.46058635 
76.57787621 
75.63731439 
74.5432501 
73.30331742 
71.93221345 
70.43373558 
68.80031046 
67.027563 
65.19184006 
63.82430733 
62.8267395 
62.09708062 
61.5783254 
61.24209224 
61.07463056 
78.94334643 
78.72455469 
78.32324948 
77.79462953 
77.19633509 
76.57787621 
75.96925382 
75.33754498 
74.36278287 
73.16733322 
71.79768675 
70.25688449 
68.5039585 
66.42073415 
63.6986889 
62.30410574 
61.39302916 
60.7386498 
60.27041184 
59.96375271 
59.80947213 
77.30756819 
77.14940061 
76.85710415 
76.4717243 
76.04467273 
75.63731439 
75.33754498 
74.75791478 
73.41529093 
71.98930587 
70.40955874 
68.63134123 
66.51787093 
63.61317047 
60.84078058 
60.26394283 
59.66622036 
59.15772232 
58.76462326 
58.49639733 
58.35807047 
75.77656326 
75.65602054 
75.43311882 
75.14119087 
74.82571385 
74.5432501 
74.36278287 
73.41529093 
71.46103744 
69.61116335 
67.6817395 
65.58377489 
63.18240119 
60.27431341 
58.50289723 
58.20863863 
57.81425233 
57.42558407 
57.09822985 
56.86324566 
56.73825182 
74.31591485 
74.21560684 
74.02990608 
73.78730062 
73.52830626 
73.30331742 
73.16733322 
71.98930587 
69.61116335 
67.45505873 
65.29902747 
63.0535698 
60.61895229 
57.90499506 
56.41011384 
56.21775581 
55.92087716 
55.59666805 
55.30420326 
55.08490942 
54.96516918 
72.9080676 
72.81371093 
72.63764986 
72.4049791 
72.15333948 
71.93221345 
71.79768675 
70.40955874 
67.6817395 
65.29902747 
63.00584563 
60.71266378 
58.33503481 
55.80877714 
54.4640333 
54.29587398 
54.01923547 
53.70068746 
53.40199712 
53.17228709 
53.04529247 
71.5493139 
71.44877239 
71.25801739 
70.9985827 
70.70589211 
70.43373558 
70.25688449 
68.63134123 
65.58377489 
63.0535698 
60.71266378 
58.4562049 
56.19974601 
53.87310241 
52.64249615 
52.44696829 
52.1238371 
51.74946862 
51.39579657 
51.12229957 
50.97145943 
70.24772545 
70.13109549 
69.90473416 
69.58389079 
69.19726396 
68.80031046 
68.5039585 
66.51787093 
63.18240119 
60.61895229 
58.33503481 
56.19974601 
54.13464194 
52.06953787 
50.97416253 
50.689968 
50.24374616 
49.74188959 
49.27410758 
48.91459528 
48.718262 
69.02098702 
68.88171403 
68.60499192 
68.19467186 
67.65940465 
67.027563 
66.42073415 
63.61317047 
60.27431341 
57.90499506 
55.80877714 
53.87310241 
52.06953787 
50.38943136 
49.54853806 
49.05882166 
48.38285826 
47.66405075 
47.00823011 
46.50765866 
46.2364242 
67.89310179 
67.72962909 
67.39906775 
66.89110706 
66.17944355 
65.19184006 
63.6986889 
60.84078058 
58.50289723 
56.41011384 
54.4640333 
52.64249615 
50.97416253 
49.54853806 
48.57172565 
47.57673793 
46.52752086 
45.48627406 
44.55033109 
43.83375613 
43.44450204 
66.88943609 
66.70556991 
66.33172938 
65.75276536 
64.93741154 
63.82430733 
62.30410574 
60.26394283 
58.20863863 
56.21775581 
54.29587398 
52.44696829 
50.689968 
49.05882166 
47.57673793 
46.11082683 
44.62569011 
43.16519338 
41.83534502 
40.79298307 
40.21481506 
66.03138619 
65.83334936 
65.4315066 
64.81297192 
63.95554562 
62.8267395 
61.39302916 
59.66622036 
57.81425233 
55.92087716 
54.01923547 
52.1238371 
50.24374616 
48.38285826 
46.52752086 
44.62569011 
42.65993204 
40.67425996 
38.79416559 
37.24668218 
36.34564254 
65.33397067 
65.1275797 
64.71064689 
64.07476804 
63.20783243 
62.09708062 
60.7386498 
59.15772232 
57.42558407 
55.59666805 
53.70068746 
51.74946862 
49.74188959 
47.66405075 
45.48627406 
43.16519338 
40.67425996 
38.03760911 
35.38060938 
33.01131376 
31.49839754 
64.80618865 
64.59558986 
64.17192909 
63.53075922 
62.66704921 
61.5783254 
60.27041184 
58.76462326 
57.09822985 
55.30420326 
53.40199712 
51.39579657 
49.27410758 
47.00823011 
44.55033109 
41.83534502 
38.79416559 
35.38060938 
31.63867361 
27.87624425 
25.04309544 
64.45246342 
64.24008174 
63.814065 
63.17255142 
62.3145043 
61.24209224 
59.96375271 
58.49639733 
56.86324566 
55.08490942 
53.17228709 
51.12229957 
48.91459528 
46.50765866 
43.83375613 
40.79298307 
37.24668218 
33.01131376 
27.87624425 
21.76904309 
15.64168954 
64.2738952 
64.06092829 
63.6343359 
62.99345327 
62.13893462 
61.07463056 
59.80947213 
58.35807047 
56.73825182 
54.96516918 
53.04529247 
50.97145943 
48.718262 
46.2364242 
43.44450204 
40.21481506 
36.34564254 
31.49839754 
25.04309544 
15.64168954 
0 
SCALARS saturation double 1
LOOKUP_TABLE default
0.8 
0.7944127219 
0.7886687565 
0.7816347937 
0.7735628124 
0.7647589596 
0.7555086126 
0.7460522704 
0.7365682513 
0.7271595722 
0.7178502456 
0.7085881792 
0.6992467692 
0.6896178584 
0.6793902556 
0.6681051519 
0.6550575488 
0.6390186977 
0.6173385064 
0.582224638 
0.4948194915 
0.7944127219 
0.7901015773 
0.7844623665 
0.7776025293 
0.7697370775 
0.761129812 
0.7520522209 
0.7427538428 
0.7334342983 
0.7242185975 
0.7151481714 
0.7061820219 
0.6971955095 
0.6879681572 
0.6781577047 
0.6672604385 
0.6545378695 
0.6387467201 
0.617238136 
0.5822328361 
0.4949037133 
0.7886687565 
0.7844623665 
0.7789254856 
0.7722227366 
0.7645454047 
0.7561226529 
0.7472120812 
0.7380805984 
0.7289670352 
0.7200315281 
0.7113395323 
0.7028629076 
0.6944737444 
0.6859204956 
0.6767899413 
0.6664753238 
0.6541825417 
0.6386632545 
0.6172951559 
0.582341483 
0.4950380348 
0.7816347937 
0.7776025293 
0.7722227366 
0.7656872001 
0.758171889 
0.7498795251 
0.7410621716 
0.7320288337 
0.7231004627 
0.7144858426 
0.7062753107 
0.6984569846 
0.6909050516 
0.6833295987 
0.6751989414 
0.665686769 
0.6539213661 
0.6386766545 
0.6173969012 
0.5824204528 
0.495054388 
0.7735628124 
0.7697370775 
0.7645454047 
0.758171889 
0.7507642473 
0.7424856654 
0.7335744258 
0.7244232439 
0.7155637862 
0.7072458763 
0.6995628213 
0.6925248743 
0.6860398616 
0.6798091189 
0.6731439213 
0.6647203278 
0.6535859935 
0.6386048819 
0.6173531335 
0.5822776135 
0.4947287088 
0.7647589596 
0.761129812 
0.7561226529 
0.7498795251 
0.7424856654 
0.7340061385 
0.7245722685 
0.7146688372 
0.7055975439 
0.6974531253 
0.6902348553 
0.6839822918 
0.6787256378 
0.6742977857 
0.6699218963 
0.6630800063 
0.6527745589 
0.6381017389 
0.6168719288 
0.5816682768 
0.4938126458 
0.7555086126 
0.7520522209 
0.7472120812 
0.7410621716 
0.7335744258 
0.7245722685 
0.713613325 
0.7001889329 
0.6904134559 
0.6821829161 
0.6751497128 
0.669376468 
0.665188178 
0.6630489375 
0.6628225718 
0.6591540378 
0.6505098865 
0.6365560179 
0.6155731478 
0.580351215 
0.4921096922 
0.7460522704 
0.7427538428 
0.7380805984 
0.7320288337 
0.7244232439 
0.7146688372 
0.7001889329 
0.2243150239 
0.2166116518 
0.2187106397 
0.2202903626 
0.2220961694 
0.225211431 
0.2326663827 
0.6573567387 
0.6545518092 
0.6467837542 
0.6336863024 
0.613262379 
0.578243565 
0.489599806 
0.7365682513 
0.7334342983 
0.7289670352 
0.7231004627 
0.7155637862 
0.7055975439 
0.6904134559 
0.2166116518 
0.2000140975 
0.2000102096 
0.2000130657 
0.20001651 
0.2000224366 
0.2000357055 
0.6514359911 
0.6494905409 
0.6423222981 
0.6299811386 
0.6102243549 
0.5755663051 
0.4865349 
0.7271595722 
0.7242185975 
0.7200315281 
0.7144858426 
0.7072458763 
0.6974531253 
0.6821829161 
0.2187106397 
0.2000102096 
0.2 
0.2 
0.2 
0.2 
0.2 
0.6452004865 
0.6440743153 
0.637466153 
0.6258641971 
0.6068537225 
0.5726971981 
0.4833663936 
0.7178502456 
0.7151481714 
0.7113395323 
0.7062753107 
0.6995628213 
0.6902348553 
0.6751497128 
0.2202903626 
0.2000130657 
0.2 
0.2 
0.2 
0.2 
0.2 
0.6387075643 
0.6383344364 
0.6323948352 
0.6216406831 
0.6035224079 
0.5700637787 
0.4806652996 
0.7085881792 
0.7061820219 
0.7028629076 
0.6984569846 
0.6925248743 
0.6839822918 
0.669376468 
0.2220961694 
0.20001651 
0.2 
0.2 
0.2 
0.2 
0.2 
0.631875179 
0.6322025404 
0.6271851138 
0.6175225809 
0.600550719 
0.5680944173 
0.4790729435 
0.6992467692 
0.6971955095 
0.6944737444 
0.6909050516 
0.6860398616 
0.6787256378 
0.665188178 
0.225211431 
0.2000224366 
0.2 
0.2 
0.2 
0.2 
0.2 
0.6244201957 
0.6254537153 
0.6217799048 
0.6136079411 
0.5981746755 
0.5671752821 
0.4792530415 
0.6896178584 
0.6879681572 
0.6859204956 
0.6833295987 
0.6798091189 
0.6742977857 
0.6630489375 
0.2326663827 
0.2000357055 
0.2 
0.2 
0.2 
0.2 
0.2 
0.6155485384 
0.6174832581 
0.6158070147 
0.6097495883 
0.5964472847 
0.5675699653 
0.4818142387 
0.6793902556 
0.6781577047 
0.6767899413 
0.6751989414 
0.6731439213 
0.6699218963 
0.6628225718 
0.6573567387 
0.6514359911 
0.6452004865 
0.6387075643 
0.631875179 
0.6244201957 
0.6155485384 
0.6093401793 
0.6091126281 
0.6089657977 
0.6054866186 
0.5950829998 
0.5692859482 
0.4872041172 
0.6681051519 
0.6672604385 
0.6664753238 
0.665686769 
0.6647203278 
0.6630800063 
0.6591540378 
0.6545518092 
0.6494905409 
0.6440743153 
0.6383344364 
0.6322025404 
0.6254537153 
0.6174832581 
0.6091126281 
0.6046522917 
0.6031183412 
0.600999398 
0.5936645952 
0.5720029233 
0.4956280868 
0.6550575488 
0.6545378695 
0.6541825417 
0.6539213661 
0.6535859935 
0.6527745589 
0.6505098865 
0.6467837542 
0.6423222981 
0.637466153 
0.6323948352 
0.6271851138 
0.6217799048 
0.6158070147 
0.6089657977 
0.6031183412 
0.5996065706 
0.5972460245 
0.5921610103 
0.5752367326 
0.5070573455 
0.6390186977 
0.6387467201 
0.6386632545 
0.6386766545 
0.6386048819 
0.6381017389 
0.6365560179 
0.6336863024 
0.6299811386 
0.6258641971 
0.6216406831 
0.6175225809 
0.6136079411 
0.6097495883 
0.6054866186 
0.600999398 
0.5972460245 
0.594516151 
0.5907906752 
0.5785363019 
0.5212477558 
0.6173385064 
0.617238136 
0.6172951559 
0.6173969012 
0.6173531335 
0.6168719288 
0.6155731478 
0.613262379 
0.6102243549 
0.6068537225 
0.6035224079 
0.600550719 
0.5981746755 
0.5964472847 
0.5950829998 
0.5936645952 
0.5921610103 
0.5907906752 
0.5888064674 
0.5811669821 
0.5374676059 
0.582224638 
0.5822328361 
0.582341483 
0.5824204528 
0.5822776135 
0.5816682768 
0.580351215 
0.578243565 
0.5755663051 
0.5726971981 
0.5700637787 
0.5680944173 
0.5671752821 
0.5675699653 
0.5692859482 
0.5720029233 
0.5752367326 
0.5785363019 
0.5811669821 
0.5799228792 
0.5529407756 
0.4948194915 
0.4949037133 
0.4950380348 
0.495054388 
0.4947287088 
0.4938126458 
0.4921096922 
0.489599806 
0.4865349 
0.4833663936 
0.4806652996 
0.4790729435 
0.4792530415 
0.4818142387 
0.4872041172 
0.4956280868 
0.5070573455 
0.5212477558 
0.5374676059 
0.5529407756 
0.5524337428 
SCALARS permeabilityx double 1
LOOKUP_TABLE default
1 
1 
1 
1 
1 
1 
1 
1 
1 
1 
1 
1 
1 
1 
1 
1 
1 
1 
1 
1 
1 
1 
1 
1 
1 
1 
1 
1 
1 
1 
1 
1 
1 
1 
1 
1 
1 
1 
1 
1 
1 
1 
1 
1 
1 
1 
1 
1 
1 
1 
1 
1 
1 
1 
1 
1 
1 
1 
1 
1 
1 
1 
1 
1 
1 
1 
1 
1 
1 
1 
1 
1 
1 
1 
1 
1 
1 
1 
1 
1 
1 
1 
1 
1 
1 
1 
1 
1 
1 
1 
1 
1 
1 
1 
1 
1 
1 
1 
1 
1 
1 
1 
1 
1 
1 
1 
1 
1 
1 
1 
1 
1 
1 
1 
1 
1 
1 
1 
1 
1 
1 
1 
1 
1 
1 
1 
1 
1 
1 
1 
1 
1 
1 
1 
1 
1 
1 
1 
1 
1 
1 
1 
1 
1 
1 
1 
1 
1 
1 
1 
1 
1 
1 
1 
0.001 
0.001 
0.001 
0.001 
0.001 
0.001 
0.001 
1 
1 
1 
1 
1 
1 
1 
1 
1 
1 
1 
1 
1 
1 
0.001 
0.001 
0.001 
0.001 
0.001 
0.001 
0.001 
1 
1 
1 
1 
1 
1 
1 
1 
1 
1 
1 
1 
1 
1 
0.001 
0.001 
0.001 
0.001 
0.001 
0.001 
0.001 
1 
1 
1 
1 
1 
1 
1 
1 
1 
1 
1 
1 
1 
1 
0.001 
0.001 
0.001 
0.001 
0.001 
0.001 
0.001 
1 
1 
1 
1 
1 
1 
1 
1 
1 
1 
1 
1 
1 
1 
0.001 
0.001 
0.001 
0.001 
0.001 
0.001 
0.001 
1 
1 
1 
1 
1 
1 
1 
1 
1 
1 
1 
1 
1 
1 
0.001 
0.001 
0.001 
0.001 
0.001 
0.001 
0.001 
1 
1 
1 
1 
1 
1 
1 
1 
1 
1 
1 
1 
1 
1 
0.001 
0.001 
0.001 
0.001 
0.001 
0.001 
0.001 
1 
1 
1 
1 
1 
1 
1 
1 
1 
1 
1 
1 
1 
1 
1 
1 
1 
1 
1 
1 
1 
1 
1 
1 
1 
1 
1 
1 
1 
1 
1 
1 
1 
1 
1 
1 
1 
1 
1 
1 
1 
1 
1 
1 
1 
1 
1 
1 
1 
1 
1 
1 
1 
1 
1 
1 
1 
1 
1 
1 
1 
1 
1 
1 
1 
1 
1 
1 
1 
1 
1 
1 
1 
1 
1 
1 
1 
1 
1 
1 
1 
1 
1 
1 
1 
1 
1 
1 
1 
1 
1 
1 
1 
1 
1 
1 
1 
1 
1 
1 
1 
1 
1 
1 
1 
1 
1 
1 
1 
1 
1 
1 
1 
1 
1 
1 
1 
1 
1 
1 
1 
1 
1 
1 
1 
1 
1 
1 
1 
1 
1 
1 
1 
1 
1 
1 
1 
1 
1 
1 
1 
1 
1 
1 
1 
1 
1 
1 
1 
1 
1 
1 
1 
1 
