# vtk DataFile Version 3.0
MOAB 5.4.1
ASCII
DATASET UNSTRUCTURED_GRID
POINTS 968 double
0 0 0
1 0 0
2 0 0
3 0 0
4 0 0
5 0 0
6 0 0
7 0 0
8 0 0
9 0 0
10 0 0
11 0 0
12 0 0
13 0 0
14 0 0
15 0 0
16 0 0
17 0 0
18 0 0
19 0 0
20 0 0
21 0 0
0 1 0
1 1 0
2 1 0
3 1 0
4 1 0
5 1 0
6 1 0
7 1 0
8 1 0
9 1 0
10 1 0
11 1 0
12 1 0
13 1 0
14 1 0
15 1 0
16 1 0
17 1 0
18 1 0
19 1 0
20 1 0
21 1 0
0 2 0
1 2 0
2 2 0
3 2 0
4 2 0
5 2 0
6 2 0
7 2 0
8 2 0
9 2 0
10 2 0
11 2 0
12 2 0
13 2 0
14 2 0
15 2 0
16 2 0
17 2 0
18 2 0
19 2 0
20 2 0
21 2 0
0 3 0
1 3 0
2 3 0
3 3 0
4 3 0
5 3 0
6 3 0
7 3 0
8 3 0
9 3 0
10 3 0
11 3 0
12 3 0
13 3 0
14 3 0
15 3 0
16 3 0
17 3 0
18 3 0
19 3 0
20 3 0
21 3 0
0 4 0
1 4 0
2 4 0
3 4 0
4 4 0
5 4 0
6 4 0
7 4 0
8 4 0
9 4 0
10 4 0
11 4 0
12 4 0
13 4 0
14 4 0
15 4 0
16 4 0
17 4 0
18 4 0
19 4 0
20 4 0
21 4 0
0 5 0
1 5 0
2 5 0
3 5 0
4 5 0
5 5 0
6 5 0
7 5 0
8 5 0
9 5 0
10 5 0
11 5 0
12 5 0
13 5 0
14 5 0
15 5 0
16 5 0
17 5 0
18 5 0
19 5 0
20 5 0
21 5 0
0 6 0
1 6 0
2 6 0
3 6 0
4 6 0
5 6 0
6 6 0
7 6 0
8 6 0
9 6 0
10 6 0
11 6 0
12 6 0
13 6 0
14 6 0
15 6 0
16 6 0
17 6 0
18 6 0
19 6 0
20 6 0
21 6 0
0 7 0
1 7 0
2 7 0
3 7 0
4 7 0
5 7 0
6 7 0
7 7 0
8 7 0
9 7 0
10 7 0
11 7 0
12 7 0
13 7 0
14 7 0
15 7 0
16 7 0
17 7 0
18 7 0
19 7 0
20 7 0
21 7 0
0 8 0
1 8 0
2 8 0
3 8 0
4 8 0
5 8 0
6 8 0
7 8 0
8 8 0
9 8 0
10 8 0
11 8 0
12 8 0
13 8 0
14 8 0
15 8 0
16 8 0
17 8 0
18 8 0
19 8 0
20 8 0
21 8 0
0 9 0
1 9 0
2 9 0
3 9 0
4 9 0
5 9 0
6 9 0
7 9 0
8 9 0
9 9 0
10 9 0
11 9 0
12 9 0
13 9 0
14 9 0
15 9 0
16 9 0
17 9 0
18 9 0
19 9 0
20 9 0
21 9 0
0 10 0
1 10 0
2 10 0
3 10 0
4 10 0
5 10 0
6 10 0
7 10 0
8 10 0
9 10 0
10 10 0
11 10 0
12 10 0
13 10 0
14 10 0
15 10 0
16 10 0
17 10 0
18 10 0
19 10 0
20 10 0
21 10 0
0 11 0
1 11 0
2 11 0
3 11 0
4 11 0
5 11 0
6 11 0
7 11 0
8 11 0
9 11 0
10 11 0
11 11 0
12 11 0
13 11 0
14 11 0
15 11 0
16 11 0
17 11 0
18 11 0
19 11 0
20 11 0
21 11 0
0 12 0
1 12 0
2 12 0
3 12 0
4 12 0
5 12 0
6 12 0
7 12 0
8 12 0
9 12 0
10 12 0
11 12 0
12 12 0
13 12 0
14 12 0
15 12 0
16 12 0
17 12 0
18 12 0
19 12 0
20 12 0
21 12 0
0 13 0
1 13 0
2 13 0
3 13 0
4 13 0
5 13 0
6 13 0
7 13 0
8 13 0
9 13 0
10 13 0
11 13 0
12 13 0
13 13 0
14 13 0
15 13 0
16 13 0
17 13 0
18 13 0
19 13 0
20 13 0
21 13 0
0 14 0
1 14 0
2 14 0
3 14 0
4 14 0
5 14 0
6 14 0
7 14 0
8 14 0
9 14 0
10 14 0
11 14 0
12 14 0
13 14 0
14 14 0
15 14 0
16 14 0
17 14 0
18 14 0
19 14 0
20 14 0
21 14 0
0 15 0
1 15 0
2 15 0
3 15 0
4 15 0
5 15 0
6 15 0
7 15 0
8 15 0
9 15 0
10 15 0
11 15 0
12 15 0
13 15 0
14 15 0
15 15 0
16 15 0
17 15 0
18 15 0
19 15 0
20 15 0
21 15 0
0 16 0
1 16 0
2 16 0
3 16 0
4 16 0
5 16 0
6 16 0
7 16 0
8 16 0
9 16 0
10 16 0
11 16 0
12 16 0
13 16 0
14 16 0
15 16 0
16 16 0
17 16 0
18 16 0
19 16 0
20 16 0
21 16 0
0 17 0
1 17 0
2 17 0
3 17 0
4 17 0
5 17 0
6 17 0
7 17 0
8 17 0
9 17 0
10 17 0
11 17 0
12 17 0
13 17 0
14 17 0
15 17 0
16 17 0
17 17 0
18 17 0
19 17 0
20 17 0
21 17 0
0 18 0
1 18 0
2 18 0
3 18 0
4 18 0
5 18 0
6 18 0
7 18 0
8 18 0
9 18 0
10 18 0
11 18 0
12 18 0
13 18 0
14 18 0
15 18 0
16 18 0
17 18 0
18 18 0
19 18 0
20 18 0
21 18 0
0 19 0
1 19 0
2 19 0
3 19 0
4 19 0
5 19 0
6 19 0
7 19 0
8 19 0
9 19 0
10 19 0
11 19 0
12 19 0
13 19 0
14 19 0
15 19 0
16 19 0
17 19 0
18 19 0
19 19 0
20 19 0
21 19 0
0 20 0
1 20 0
2 20 0
3 20 0
4 20 0
5 20 0
6 20 0
7 20 0
8 20 0
9 20 0
10 20 0
11 20 0
12 20 0
13 20 0
14 20 0
15 20 0
16 20 0
17 20 0
18 20 0
19 20 0
20 20 0
21 20 0
0 21 0
1 21 0
2 21 0
3 21 0
4 21 0
5 21 0
6 21 0
7 21 0
8 21 0
9 21 0
10 21 0
11 21 0
12 21 0
13 21 0
14 21 0
15 21 0
16 21 0
17 21 0
18 21 0
19 21 0
20 21 0
21 21 0
0 0 1
1 0 1
2 0 1
3 0 1
4 0 1
5 0 1
6 0 1
7 0 1
8 0 1
9 0 1
10 0 1
11 0 1
12 0 1
13 0 1
14 0 1
15 0 1
16 0 1
17 0 1
18 0 1
19 0 1
20 0 1
21 0 1
0 1 1
1 1 1
2 1 1
3 1 1
4 1 1
5 1 1
6 1 1
7 1 1
8 1 1
9 1 1
10 1 1
11 1 1
12 1 1
13 1 1
14 1 1
15 1 1
16 1 1
17 1 1
18 1 1
19 1 1
20 1 1
21 1 1
0 2 1
1 2 1
2 2 1
3 2 1
4 2 1
5 2 1
6 2 1
7 2 1
8 2 1
9 2 1
10 2 1
11 2 1
12 2 1
13 2 1
14 2 1
15 2 1
16 2 1
17 2 1
18 2 1
19 2 1
20 2 1
21 2 1
0 3 1
1 3 1
2 3 1
3 3 1
4 3 1
5 3 1
6 3 1
7 3 1
8 3 1
9 3 1
10 3 1
11 3 1
12 3 1
13 3 1
14 3 1
15 3 1
16 3 1
17 3 1
18 3 1
19 3 1
20 3 1
21 3 1
0 4 1
1 4 1
2 4 1
3 4 1
4 4 1
5 4 1
6 4 1
7 4 1
8 4 1
9 4 1
10 4 1
11 4 1
12 4 1
13 4 1
14 4 1
15 4 1
16 4 1
17 4 1
18 4 1
19 4 1
20 4 1
21 4 1
0 5 1
1 5 1
2 5 1
3 5 1
4 5 1
5 5 1
6 5 1
7 5 1
8 5 1
9 5 1
10 5 1
11 5 1
12 5 1
13 5 1
14 5 1
15 5 1
16 5 1
17 5 1
18 5 1
19 5 1
20 5 1
21 5 1
0 6 1
1 6 1
2 6 1
3 6 1
4 6 1
5 6 1
6 6 1
7 6 1
8 6 1
9 6 1
10 6 1
11 6 1
12 6 1
13 6 1
14 6 1
15 6 1
16 6 1
17 6 1
18 6 1
19 6 1
20 6 1
21 6 1
0 7 1
1 7 1
2 7 1
3 7 1
4 7 1
5 7 1
6 7 1
7 7 1
8 7 1
9 7 1
10 7 1
11 7 1
12 7 1
13 7 1
14 7 1
15 7 1
16 7 1
17 7 1
18 7 1
19 7 1
20 7 1
21 7 1
0 8 1
1 8 1
2 8 1
3 8 1
4 8 1
5 8 1
6 8 1
7 8 1
8 8 1
9 8 1
10 8 1
11 8 1
12 8 1
13 8 1
14 8 1
15 8 1
16 8 1
17 8 1
18 8 1
19 8 1
20 8 1
21 8 1
0 9 1
1 9 1
2 9 1
3 9 1
4 9 1
5 9 1
6 9 1
7 9 1
8 9 1
9 9 1
10 9 1
11 9 1
12 9 1
13 9 1
14 9 1
15 9 1
16 9 1
17 9 1
18 9 1
19 9 1
20 9 1
21 9 1
0 10 1
1 10 1
2 10 1
3 10 1
4 10 1
5 10 1
6 10 1
7 10 1
8 10 1
9 10 1
10 10 1
11 10 1
12 10 1
13 10 1
14 10 1
15 10 1
16 10 1
17 10 1
18 10 1
19 10 1
20 10 1
21 10 1
0 11 1
1 11 1
2 11 1
3 11 1
4 11 1
5 11 1
6 11 1
7 11 1
8 11 1
9 11 1
10 11 1
11 11 1
12 11 1
13 11 1
14 11 1
15 11 1
16 11 1
17 11 1
18 11 1
19 11 1
20 11 1
21 11 1
0 12 1
1 12 1
2 12 1
3 12 1
4 12 1
5 12 1
6 12 1
7 12 1
8 12 1
9 12 1
10 12 1
11 12 1
12 12 1
13 12 1
14 12 1
15 12 1
16 12 1
17 12 1
18 12 1
19 12 1
20 12 1
21 12 1
0 13 1
1 13 1
2 13 1
3 13 1
4 13 1
5 13 1
6 13 1
7 13 1
8 13 1
9 13 1
10 13 1
11 13 1
12 13 1
13 13 1
14 13 1
15 13 1
16 13 1
17 13 1
18 13 1
19 13 1
20 13 1
21 13 1
0 14 1
1 14 1
2 14 1
3 14 1
4 14 1
5 14 1
6 14 1
7 14 1
8 14 1
9 14 1
10 14 1
11 14 1
12 14 1
13 14 1
14 14 1
15 14 1
16 14 1
17 14 1
18 14 1
19 14 1
20 14 1
21 14 1
0 15 1
1 15 1
2 15 1
3 15 1
4 15 1
5 15 1
6 15 1
7 15 1
8 15 1
9 15 1
10 15 1
11 15 1
12 15 1
13 15 1
14 15 1
15 15 1
16 15 1
17 15 1
18 15 1
19 15 1
20 15 1
21 15 1
0 16 1
1 16 1
2 16 1
3 16 1
4 16 1
5 16 1
6 16 1
7 16 1
8 16 1
9 16 1
10 16 1
11 16 1
12 16 1
13 16 1
14 16 1
15 16 1
16 16 1
17 16 1
18 16 1
19 16 1
20 16 1
21 16 1
0 17 1
1 17 1
2 17 1
3 17 1
4 17 1
5 17 1
6 17 1
7 17 1
8 17 1
9 17 1
10 17 1
11 17 1
12 17 1
13 17 1
14 17 1
15 17 1
16 17 1
17 17 1
18 17 1
19 17 1
20 17 1
21 17 1
0 18 1
1 18 1
2 18 1
3 18 1
4 18 1
5 18 1
6 18 1
7 18 1
8 18 1
9 18 1
10 18 1
11 18 1
12 18 1
13 18 1
14 18 1
15 18 1
16 18 1
17 18 1
18 18 1
19 18 1
20 18 1
21 18 1
0 19 1
1 19 1
2 19 1
3 19 1
4 19 1
5 19 1
6 19 1
7 19 1
8 19 1
9 19 1
10 19 1
11 19 1
12 19 1
13 19 1
14 19 1
15 19 1
16 19 1
17 19 1
18 19 1
19 19 1
20 19 1
21 19 1
0 20 1
1 20 1
2 20 1
3 20 1
4 20 1
5 20 1
6 20 1
7 20 1
8 20 1
9 20 1
10 20 1
11 20 1
12 20 1
13 20 1
14 20 1
15 20 1
16 20 1
17 20 1
18 20 1
19 20 1
20 20 1
21 20 1
0 21 1
1 21 1
2 21 1
3 21 1
4 21 1
5 21 1
6 21 1
7 21 1
8 21 1
9 21 1
10 21 1
11 21 1
12 21 1
13 21 1
14 21 1
15 21 1
16 21 1
17 21 1
18 21 1
19 21 1
20 21 1
21 21 1
CELLS 441 3969
8 0 1 23 22 484 485 507 506
8 22 23 45 44 506 507 529 528
8 44 45 67 66 528 529 551 550
8 66 67 89 88 550 551 573 572
8 88 89 111 110 572 573 595 594
8 110 111 133 132 594 595 617 616
8 132 133 155 154 616 617 639 638
8 154 155 177 176 638 639 661 660
8 176 177 199 198 660 661 683 682
8 198 199 221 220 682 683 705 704
8 220 221 243 242 704 705 727 726
8 242 243 265 264 726 727 749 748
8 264 265 287 286 748 749 771 770
8 286 287 309 308 770 771 793 792
8 308 309 331 330 792 793 815 814
8 330 331 353 352 814 815 837 836
8 352 353 375 374 836 837 859 858
8 374 375 397 396 858 859 881 880
8 396 397 419 418 880 881 903 902
8 418 419 441 440 902 903 925 924
8 440 441 463 462 924 925 947 946
8 1 2 24 23 485 486 508 507
8 23 24 46 45 507 508 530 529
8 45 46 68 67 529 530 552 551
8 67 68 90 89 551 552 574 573
8 89 90 112 111 573 574 596 595
8 111 112 134 133 595 596 618 617
8 133 134 156 155 617 618 640 639
8 155 156 178 177 639 640 662 661
8 177 178 200 199 661 662 684 683
8 199 200 222 221 683 684 706 705
8 221 222 244 243 705 706 728 727
8 243 244 266 265 727 728 750 749
8 265 266 288 287 749 750 772 771
8 287 288 310 309 771 772 794 793
8 309 310 332 331 793 794 816 815
8 331 332 354 353 815 816 838 837
8 353 354 376 375 837 838 860 859
8 375 376 398 397 859 860 882 881
8 397 398 420 419 881 882 904 903
8 419 420 442 441 903 904 926 925
8 441 442 464 463 925 926 948 947
8 2 3 25 24 486 487 509 508
8 24 25 47 46 508 509 531 530
8 46 47 69 68 530 531 553 552
8 68 69 91 90 552 553 575 574
8 90 91 113 112 574 575 597 596
8 112 113 135 134 596 597 619 618
8 134 135 157 156 618 619 641 640
8 156 157 179 178 640 641 663 662
8 178 179 201 200 662 663 685 684
8 200 201 223 222 684 685 707 706
8 222 223 245 244 706 707 729 728
8 244 245 267 266 728 729 751 750
8 266 267 289 288 750 751 773 772
8 288 289 311 310 772 773 795 794
8 310 311 333 332 794 795 817 816
8 332 333 355 354 816 817 839 838
8 354 355 377 376 838 839 861 860
8 376 377 399 398 860 861 883 882
8 398 399 421 420 882 883 905 904
8 420 421 443 442 904 905 927 926
8 442 443 465 464 926 927 949 948
8 3 4 26 25 487 488 510 509
8 25 26 48 47 509 510 532 531
8 47 48 70 69 531 532 554 553
8 69 70 92 91 553 554 576 575
8 91 92 114 113 575 576 598 597
8 113 114 136 135 597 598 620 619
8 135 136 158 157 619 620 642 641
8 157 158 180 179 641 642 664 663
8 179 180 202 201 663 664 686 685
8 201 202 224 223 685 686 708 707
8 223 224 246 245 707 708 730 729
8 245 246 268 267 729 730 752 751
8 267 268 290 289 751 752 774 773
8 289 290 312 311 773 774 796 795
8 311 312 334 333 795 796 818 817
8 333 334 356 355 817 818 840 839
8 355 356 378 377 839 840 862 861
8 377 378 400 399 861 862 884 883
8 399 400 422 421 883 884 906 905
8 421 422 444 443 905 906 928 927
8 443 444 466 465 927 928 950 949
8 4 5 27 26 488 489 511 510
8 26 27 49 48 510 511 533 532
8 48 49 71 70 532 533 555 554
8 70 71 93 92 554 555 577 576
8 92 93 115 114 576 577 599 598
8 114 115 137 136 598 599 621 620
8 136 137 159 158 620 621 643 642
8 158 159 181 180 642 643 665 664
[...]
POINT_DATA 968
SCALARS GLOBAL_ID int 1
LOOKUP_TABLE default
-1 
-1 
-1 
-1 
-1 
-1 
-1 
-1 
-1 
-1 
-1 
-1 
-1 
-1 
-1 
-1 
-1 
-1 
-1 
-1 
-1 
-1 
-1 
-1 
-1 
-1 
-1 
-1 
-1 
-1 
-1 
-1 
-1 
-1 
-1 
-1 
-1 
-1 
-1 
-1 
-1 
-1 
-1 
-1 
-1 
-1 
-1 
-1 
-1 
-1 
-1 
-1 
-1 
-1 
-1 
-1 
-1 
-1 
-1 
-1 
-1 
-1 
-1 
-1 
-1 
-1 
-1 
-1 
-1 
-1 
-1 
-1 
-1 
-1 
-1 
-1 
-1 
-1 
-1 
-1 
-1 
-1 
-1 
-1 
-1 
-1 
-1 
-1 
-1 
-1 
-1 
-1 
-1 
-1 
-1 
-1 
-1 
-1 
-1 
-1 
-1 
-1 
-1 
-1 
-1 
-1 
-1 
-1 
-1 
-1 
-1 
-1 
-1 
-1 
-1 
-1 
-1 
-1 
-1 
-1 
-1 
-1 
-1 
-1 
-1 
-1 
-1 
-1 
-1 
-1 
-1 
-1 
-1 
-1 
-1 
-1 
-1 
-1 
-1 
-1 
-1 
-1 
-1 
-1 
-1 
-1 
-1 
-1 
-1 
-1 
-1 
-1 
-1 
-1 
-1 
-1 
-1 
-1 
-1 
-1 
-1 
-1 
-1 
-1 
-1 
-1 
-1 
-1 
-1 
-1 
-1 
-1 
-1 
-1 
-1 
-1 
-1 
-1 
-1 
-1 
-1 
-1 
-1 
-1 
-1 
-1 
-1 
-1 
-1 
-1 
-1 
-1 
-1 
-1 
-1 
-1 
-1 
-1 
-1 
-1 
-1 
-1 
-1 
-1 
-1 
-1 
-1 
-1 
-1 
-1 
-1 
-1 
-1 
-1 
-1 
-1 
-1 
-1 
-1 
-1 
-1 
-1 
-1 
-1 
-1 
-1 
-1 
-1 
-1 
-1 
-1 
-1 
-1 
-1 
-1 
-1 
-1 
-1 
-1 
-1 
-1 
-1 
-1 
-1 
-1 
-1 
-1 
-1 
-1 
-1 
-1 
-1 
-1 
-1 
-1 
-1 
-1 
-1 
-1 
-1 
-1 
-1 
-1 
-1 
-1 
-1 
-1 
-1 
-1 
-1 
-1 
-1 
-1 
-1 
-1 
-1 
-1 
-1 
-1 
-1 
-1 
-1 
-1 
-1 
-1 
-1 
-1 
-1 
-1 
-1 
-1 
-1 
-1 
-1 
-1 
-1 
-1 
-1 
-1 
-1 
-1 
-1 
-1 
-1 
-1 
-1 
-1 
-1 
-1 
-1 
-1 
-1 
-1 
-1 
-1 
-1 
-1 
-1 
-1 
-1 
-1 
-1 
-1 
-1 
-1 
-1 
-1 
-1 
-1 
-1 
-1 
-1 
-1 
-1 
-1 
-1 
-1 
-1 
-1 
-1 
-1 
-1 
-1 
-1 
-1 
-1 
-1 
-1 
-1 
-1 
-1 
-1 
-1 
-1 
-1 
-1 
-1 
-1 
-1 
-1 
-1 
-1 
-1 
-1 
-1 
-1 
-1 
-1 
-1 
-1 
-1 
-1 
-1 
-1 
-1 
-1 
-1 
-1 
-1 
-1 
-1 
-1 
-1 
-1 
-1 
-1 
-1 
-1 
-1 
-1 
-1 
-1 
-1 
-1 
-1 
-1 
-1 
-1 
-1 
-1 
-1 
-1 
-1 
-1 
-1 
-1 
-1 
-1 
-1 
-1 
-1 
-1 
-1 
-1 
-1 
-1 
-1 
-1 
-1 
-1 
-1 
-1 
-1 
-1 
-1 
-1 
-1 
-1 
-1 
-1 
-1 
-1 
-1 
-1 
-1 
-1 
-1 
-1 
-1 
-1 
-1 
-1 
-1 
-1 
-1 
-1 
-1 
-1 
-1 
-1 
-1 
-1 
-1 
-1 
-1 
-1 
-1 
-1 
-1 
-1 
-1 
-1 
-1 
-1 
-1 
-1 
-1 
-1 
-1 
-1 
-1 
-1 
-1 
-1 
-1 
-1 
-1 
-1 
-1 
-1 
-1 
-1 
-1 
-1 
-1 
-1 
-1 
-1 
-1 
-1 
-1 
-1 
-1 
-1 
-1 
-1 
-1 
-1 
-1 
-1 
-1 
-1 
-1 
-1 
-1 
-1 
-1 
-1 
-1 
-1 
-1 
-1 
-1 
-1 
-1 
-1 
-1 
-1 
-1 
-1 
-1 
-1 
-1 
-1 
-1 
-1 
-1 
-1 
-1 
-1 
-1 
-1 
-1 
-1 
-1 
-1 
-1 
-1 
-1 
-1 
-1 
-1 
-1 
-1 
-1 
-1 
-1 
-1 
-1 
-1 
-1 
-1 
-1 
-1 
-1 
-1 
-1 
-1 
-1 
-1 
-1 
-1 
-1 
-1 
-1 
-1 
-1 
-1 
-1 
-1 
-1 
-1 
-1 
-1 
-1 
-1 
-1 
-1 
-1 
-1 
-1 
-1 
-1 
-1 
-1 
-1 
-1 
-1 
-1 
-1 
-1 
-1 
-1 
-1 
-1 
-1 
-1 
-1 
-1 
-1 
-1 
-1 
-1 
-1 
-1 
-1 
-1 
-1 
-1 
-1 
-1 
-1 
-1 
-1 
-1 
-1 
-1 
-1 
-1 
-1 
-1 
-1 
-1 
-1 
-1 
-1 
-1 
-1 
-1 
-1 
-1 
-1 
-1 
-1 
-1 
-1 
-1 
-1 
-1 
-1 
-1 
-1 
-1 
-1 
-1 
-1 
-1 
-1 
-1 
-1 
-1 
-1 
-1 
-1 
-1 
-1 
-1 
-1 
-1 
-1 
-1 
-1 
-1 
-1 
-1 
-1 
-1 
-1 
-1 
-1 
-1 
-1 
-1 
-1 
-1 
-1 
-1 
-1 
-1 
-1 
-1 
-1 
-1 
-1 
-1 
-1 
-1 
-1 
-1 
-1 
-1 
-1 
-1 
-1 
-1 
-1 
-1 
-1 
-1 
-1 
-1 
-1 
-1 
-1 
-1 
-1 
-1 
-1 
-1 
-1 
-1 
-1 
-1 
-1 
-1 
-1 
-1 
-1 
-1 
-1 
-1 
-1 
-1 
-1 
-1 
-1 
-1 
-1 
-1 
-1 
-1 
-1 
-1 
-1 
-1 
-1 
-1 
-1 
-1 
-1 
-1 
-1 
-1 
-1 
-1 
-1 
-1 
-1 
-1 
-1 
-1 
-1 
-1 
-1 
-1 
-1 
-1 
-1 
-1 
-1 
-1 
-1 
-1 
-1 
-1 
-1 
-1 
-1 
-1 
-1 
-1 
-1 
-1 
-1 
-1 
-1 
-1 
-1 
-1 
-1 
-1 
-1 
-1 
-1 
-1 
-1 
-1 
-1 
-1 
-1 
-1 
-1 
-1 
-1 
-1 
-1 
-1 
-1 
-1 
-1 
-1 
-1 
-1 
-1 
-1 
-1 
-1 
-1 
-1 
-1 
-1 
-1 
-1 
-1 
-1 
-1 
-1 
-1 
-1 
-1 
-1 
-1 
-1 
-1 
-1 
-1 
-1 
-1 
-1 
-1 
-1 
-1 
-1 
-1 
-1 
-1 
-1 
-1 
-1 
-1 
-1 
-1 
-1 
-1 
-1 
-1 
-1 
-1 
-1 
-1 
-1 
-1 
-1 
-1 
-1 
-1 
-1 
-1 
-1 
-1 
-1 
-1 
-1 
-1 
-1 
-1 
-1 
-1 
-1 
-1 
-1 
-1 
-1 
-1 
-1 
-1 
-1 
-1 
-1 
-1 
-1 
-1 
-1 
-1 
-1 
-1 
-1 
-1 
-1 
-1 
-1 
-1 
-1 
-1 
-1 
-1 
-1 
-1 
-1 
-1 
-1 
-1 
-1 
-1 
-1 
-1 
-1 
-1 
-1 
-1 
-1 
-1 
-1 
-1 
-1 
-1 
-1 
-1 
-1 
-1 
-1 
-1 
-1 
-1 
-1 
-1 
-1 
-1 
-1 
-1 
-1 
-1 
-1 
-1 
-1 
-1 
-1 
-1 
-1 
-1 
-1 
-1 
-1 
-1 
-1 
-1 
-1 
-1 
-1 
-1 
-1 
-1 
-1 
-1 
-1 
-1 
-1 
-1 
-1 
-1 
-1 
-1 
-1 
-1 
-1 
-1 
-1 
-1 
CELL_DATA 441
SCALARS GLOBAL_ID int 1
LOOKUP_TABLE default
-1 
-1 
-1 
-1 
-1 
-1 
-1 
-1 
-1 
-1 
-1 
-1 
-1 
-1 
-1 
-1 
-1 
-1 
-1 
-1 
-1 
-1 
-1 
-1 
-1 
-1 
-1 
-1 
-1 
-1 
-1 
-1 
-1 
-1 
-1 
-1 
-1 
-1 
-1 
-1 
-1 
-1 
-1 
-1 
-1 
-1 
-1 
-1 
-1 
-1 
-1 
-1 
-1 
-1 
-1 
-1 
-1 
-1 
-1 
-1 
-1 
-1 
-1 
-1 
-1 
-1 
-1 
-1 
-1 
-1 
-1 
-1 
-1 
-1 
-1 
-1 
-1 
-1 
-1 
-1 
-1 
-1 
-1 
-1 
-1 
-1 
-1 
-1 
-1 
-1 
-1 
-1 
-1 
-1 
-1 
-1 
-1 
-1 
-1 
-1 
-1 
-1 
-1 
-1 
-1 
-1 
-1 
-1 
-1 
-1 
-1 
-1 
-1 
-1 
-1 
-1 
-1 
-1 
-1 
-1 
-1 
-1 
-1 
-1 
-1 
-1 
-1 
-1 
-1 
-1 
-1 
-1 
-1 
-1 
-1 
-1 
-1 
-1 
-1 
-1 
-1 
-1 
-1 
-1 
-1 
-1 
-1 
-1 
-1 
-1 
-1 
-1 
-1 
-1 
-1 
-1 
-1 
-1 
-1 
-1 
-1 
-1 
-1 
-1 
-1 
-1 
-1 
-1 
-1 
-1 
-1 
-1 
-1 
-1 
-1 
-1 
-1 
-1 
-1 
-1 
-1 
-1 
-1 
-1 
-1 
-1 
-1 
-1 
-1 
-1 
-1 
-1 
-1 
-1 
-1 
-1 
-1 
-1 
-1 
-1 
-1 
-1 
-1 
-1 
-1 
-1 
-1 
-1 
-1 
-1 
-1 
-1 
-1 
-1 
-1 
-1 
-1 
-1 
-1 
-1 
-1 
-1 
-1 
-1 
-1 
-1 
-1 
-1 
-1 
-1 
-1 
-1 
-1 
-1 
-1 
-1 
-1 
-1 
-1 
-1 
-1 
-1 
-1 
-1 
-1 
-1 
-1 
-1 
-1 
-1 
-1 
-1 
-1 
-1 
-1 
-1 
-1 
-1 
-1 
-1 
-1 
-1 
-1 
-1 
-1 
-1 
-1 
-1 
-1 
-1 
-1 
-1 
-1 
-1 
-1 
-1 
-1 
-1 
-1 
-1 
-1 
-1 
-1 
-1 
-1 
-1 
-1 
-1 
-1 
-1 
-1 
-1 
-1 
-1 
-1 
-1 
-1 
-1 
-1 
-1 
-1 
-1 
-1 
-1 
-1 
-1 
-1 
-1 
-1 
-1 
-1 
-1 
-1 
-1 
-1 
-1 
-1 
-1 
-1 
-1 
-1 
-1 
-1 
-1 
-1 
-1 
-1 
-1 
-1 
-1 
-1 
-1 
-1 
-1 
-1 
-1 
-1 
-1 
-1 
-1 
-1 
-1 
-1 
-1 
-1 
-1 
-1 
-1 
-1 
-1 
-1 
-1 
-1 
-1 
-1 
-1 
-1 
-1 
-1 
-1 
-1 
-1 
-1 
-1 
-1 
-1 
-1 
-1 
-1 
-1 
-1 
-1 
-1 
-1 
-1 
-1 
-1 
-1 
-1 
-1 
-1 
-1 
-1 
-1 
-1 
-1 
-1 
-1 
-1 
-1 
-1 
-1 
-1 
-1 
-1 
-1 
-1 
-1 
-1 
-1 
-1 
-1 
-1 
-1 
-1 
-1 
-1 
-1 
-1 
-1 
-1 
-1 
-1 
-1 
-1 
-1 
-1 
-1 
-1 
-1 
-1 
-1 
-1 
-1 
-1 
-1 
-1 
-1 
-1 
-1 
-1 
-1 
-1 
-1 
-1 
-1 
-1 
-1 
-1 
-1 
-1 
SCALARS pressure double 1
LOOKUP_TABLE default
100 
93.15232022 
88.91396863 
85.90120692 
83.54119309 
81.564288 
79.82534963 
78.23789981 
76.74789072 
75.32266296 
73.94578095 
72.61421403 
71.33639692 
70.13015807 
69.01950449 
68.02973974 
67.18219068 
66.49181767 
65.96753524 
65.6135605 
65.43101514 
93.15232022 
90.39672809 
87.59608628 
85.16842627 
83.08636509 
81.26098006 
79.6136304 
78.08440002 
76.63048117 
75.22451814 
73.85300424 
72.51493965 
71.22090615 
69.99200826 
68.85718115 
67.84703186 
66.98527745 
66.28647578 
65.75789141 
65.40204376 
65.21884812 
88.91396863 
87.59608628 
85.82460683 
84.0161822 
82.3067905 
80.71661839 
79.22513984 
77.80066972 
76.41335531 
75.042811 
73.67986927 
72.32655398 
70.99671485 
69.71747782 
68.52890863 
67.47551267 
66.5856755 
65.87161169 
65.33608683 
64.97768588 
64.79378636 
85.90120692 
85.16842627 
84.0161822 
82.69607394 
81.34362389 
80.01325878 
78.71301403 
77.42641837 
76.12892563 
74.80537497 
73.45099521 
72.07024491 
70.67884016 
69.31030991 
68.02439012 
66.90008205 
65.97052081 
65.23879389 
64.69759641 
64.33850083 
64.15500134 
83.54119309 
83.08636509 
82.3067905 
81.34362389 
80.29737634 
79.22218041 
78.13277475 
77.01144616 
75.82145607 
74.55182816 
73.20335284 
71.78092786 
70.29562108 
68.77900636 
67.31745771 
66.08963792 
65.11769203 
64.37589224 
63.83728783 
63.48328113 
63.3029155 
81.564288 
81.26098006 
80.71661839 
80.01325878 
79.22218041 
78.39030278 
77.53214733 
76.61532371 
75.54607316 
74.33150467 
72.9856237 
71.51173824 
69.90197441 
68.15169012 
66.33640578 
64.98322779 
63.99485624 
63.27012658 
62.75255934 
62.41399134 
62.24111163 
79.82534963 
79.6136304 
79.22513984 
78.71301403 
78.13277475 
77.53214733 
76.93994644 
76.32358145 
75.3700684 
74.1982851 
72.85306904 
71.3366786 
69.60793724 
67.54911784 
64.85348549 
63.47230891 
62.56865731 
61.91755191 
61.44905885 
61.13884499 
60.978257 
78.23789981 
78.08440002 
77.80066972 
77.42641837 
77.01144616 
76.61532371 
76.32358145 
75.72847313 
74.40230264 
72.99056634 
71.42604975 
69.66277346 
67.56501135 
64.69403101 
62.01635467 
61.44480908 
60.8507026 
60.34304863 
59.94782944 
59.67451256 
59.52873452 
76.74789072 
76.63048117 
76.41335531 
76.12892563 
75.82145607 
75.54607316 
75.3700684 
74.40230264 
72.48472705 
70.65747866 
68.751356 
66.67858258 
64.30727818 
61.43983537 
59.69332648 
59.40101212 
59.00734502 
58.61717529 
58.28571894 
58.04392691 
57.91015515 
75.32266296 
75.22451814 
75.042811 
74.80537497 
74.55182816 
74.33150467 
74.1982851 
72.99056634 
70.65747866 
68.52551135 
66.39359324 
64.17352845 
61.76753024 
59.08744833 
57.61177104 
57.41965763 
57.12142749 
56.79367463 
56.49518239 
56.26730672 
56.13736183 
73.94578095 
73.85300424 
73.67986927 
73.45099521 
73.20335284 
72.9856237 
72.85306904 
71.42604975 
68.751356 
66.39359324 
64.12404523 
61.85449723 
59.50198658 
57.0035588 
55.67418547 
55.50515049 
55.22551284 
54.90158404 
54.59501062 
54.35495117 
54.21629298 
72.61421403 
72.51493965 
72.32655398 
72.07024491 
71.78092786 
71.51173824 
71.3366786 
69.66277346 
66.67858258 
64.17352845 
61.85449723 
59.61842865 
57.38236007 
55.07733206 
53.85864028 
53.66122912 
53.33350012 
52.95188626 
52.58843581 
52.30283238 
52.13890928 
71.33639692 
71.22090615 
70.99671485 
70.67884016 
70.29562108 
69.90197441 
69.60793724 
67.56501135 
64.30727818 
61.76753024 
59.50198658 
57.38236007 
55.33169299 
53.2810259 
52.19368239 
51.90636339 
51.45360224 
50.94226848 
50.46254299 
50.08911734 
49.87844103 
70.13015807 
69.99200826 
69.71747782 
69.31030991 
68.77900636 
68.15169012 
67.54911784 
64.69403101 
61.43983537 
59.08744833 
57.0035588 
55.07733206 
53.2810259 
51.60656718 
50.76850059 
50.27375271 
49.58851243 
48.85717232 
48.18657666 
47.67004413 
47.383529 
69.01950449 
68.85718115 
68.52890863 
68.02439012 
67.31745771 
66.33640578 
64.85348549 
62.01635467 
59.69332648 
57.61177104 
55.67418547 
53.85864028 
52.19368239 
50.76850059 
49.78863348 
48.7853542 
47.72295792 
46.66478024 
45.70990835 
44.97456169 
44.5694362 
68.02973974 
67.84703186 
67.47551267 
66.90008205 
66.08963792 
64.98322779 
63.47230891 
61.44480908 
59.40101212 
57.41965763 
55.50515049 
53.66122912 
51.90636339 
50.27375271 
48.7853542 
47.30690717 
45.80320628 
44.31937015 
42.96400853 
41.89802284 
41.30311449 
67.18219068 
66.98527745 
66.5856755 
65.97052081 
65.11769203 
63.99485624 
62.56865731 
60.8507026 
59.00734502 
57.12142749 
55.22551284 
53.33350012 
51.45360224 
49.58851243 
47.72295792 
45.80320628 
43.81137728 
41.79268962 
39.87605874 
38.29528597 
37.37407121 
66.49181767 
66.28647578 
65.87161169 
65.23879389 
64.37589224 
63.27012658 
61.91755191 
60.34304863 
58.61717529 
56.79367463 
54.90158404 
52.95188626 
50.94226848 
48.85717232 
46.66478024 
44.31937015 
41.79268962 
39.10893988 
36.39690787 
33.97442186 
32.42923436 
65.96753524 
65.75789141 
65.33608683 
64.69759641 
63.83728783 
62.75255934 
61.44905885 
59.94782944 
58.28571894 
56.49518239 
54.59501062 
52.58843581 
50.46254299 
48.18657666 
45.70990835 
42.96400853 
39.87605874 
36.39690787 
32.57078067 
28.71534228 
25.81324513 
65.6135605 
65.40204376 
64.97768588 
64.33850083 
63.48328113 
62.41399134 
61.13884499 
59.67451256 
58.04392691 
56.26730672 
54.35495117 
52.30283238 
50.08911734 
47.67004413 
44.97456169 
41.89802284 
38.29528597 
33.97442186 
28.71534228 
22.44151018 
16.1383739 
65.43101514 
65.21884812 
64.79378636 
64.15500134 
63.3029155 
62.24111163 
60.978257 
59.52873452 
57.91015515 
56.13736183 
54.21629298 
52.13890928 
49.87844103 
47.383529 
44.5694362 
41.30311449 
37.37407121 
32.42923436 
25.81324513 
16.1383739 
0 
SCALARS saturation double 1
LOOKUP_TABLE default
0.8 
0.7936704748 
0.7872402501 
0.7794404838 
0.7705653584 
0.7609562703 
0.7509211513 
0.7407116415 
0.73050799 
0.7204079258 
0.7104247841 
0.7004913752 
0.6904612515 
0.6800996102 
0.6690571674 
0.6568162608 
0.6425698476 
0.6248756345 
0.6005102354 
0.5598052913 
0.4569307075 
0.7936704748 
0.7888280396 
0.7825483709 
0.774971943 
0.7663500343 
0.7569772645 
0.747147119 
0.7371219606 
0.7271057364 
0.7172202873 
0.7074979563 
0.6978837302 
0.6882336135 
0.678300047 
0.667700962 
0.6558710523 
0.6419680372 
0.6245347446 
0.6003490367 
0.5597551944 
0.4569471617 
0.7872402501 
0.7825483709 
0.7764180364 
0.7690491827 
0.7606638883 
0.7515176261 
0.7418888326 
0.7320592508 
0.722275568 
0.7126977081 
0.7033841883 
0.6942944202 
0.6852818666 
0.6760668686 
0.6661923786 
0.6549830621 
0.6415377789 
0.6243950235 
0.6003615124 
0.5598270272 
0.4570563112 
0.7794404838 
0.774971943 
0.7690491827 
0.7618975729 
0.7537195427 
0.7447403668 
0.7352322772 
0.7255227633 
0.715947116 
0.7067177554 
0.6979206095 
0.6895337617 
0.6814145723 
0.6732440425 
0.6644391866 
0.6540879034 
0.6412061822 
0.6243582092 
0.6004229662 
0.559870832 
0.4570500951 
0.7705653584 
0.7663500343 
0.7606638883 
0.7537195427 
0.7456859402 
0.7367440858 
0.7271509668 
0.7173244086 
0.7078264042 
0.6989139089 
0.6906776649 
0.6831217905 
0.6761422964 
0.6694132419 
0.6621838932 
0.6530009798 
0.6407935866 
0.624226299 
0.6003213737 
0.5596646913 
0.4566520449 
0.7609562703 
0.7569772645 
0.7515176261 
0.7447403668 
0.7367440858 
0.7276020801 
0.7174549015 
0.7068189516 
0.697085021 
0.6883454326 
0.6805936205 
0.6738691688 
0.6682036956 
0.6634165704 
0.6586637297 
0.6511863307 
0.6398634416 
0.6236182802 
0.5997286251 
0.5589238702 
0.4555527229 
0.7509211513 
0.747147119 
0.7418888326 
0.7352322772 
0.7271509668 
0.7174549015 
0.7056614238 
0.6912031679 
0.6806687713 
0.6717921348 
0.6641991885 
0.6579603491 
0.6534331221 
0.6511286794 
0.650901497 
0.6468756089 
0.6373377838 
0.6218510901 
0.5982097889 
0.5573609828 
0.4534966248 
0.7407116415 
0.7371219606 
0.7320592508 
0.7255227633 
0.7173244086 
0.7068189516 
0.6912031679 
0.2217283367 
0.2145839218 
0.2162751446 
0.2175034788 
0.2189129548 
0.2213994356 
0.2273757275 
0.645244693 
0.6418631349 
0.6331893105 
0.6185903911 
0.5955244558 
0.5548597879 
0.4504267421 
0.73050799 
0.7271057364 
0.722275568 
0.715947116 
0.7078264042 
0.697085021 
0.6806687713 
0.2145839218 
0.2000098088 
0.2000069232 
0.2000086625 
0.2000107155 
0.2000142452 
0.2000220925 
0.6389582678 
0.6362710554 
0.6281657719 
0.6143393865 
0.591956805 
0.5516412842 
0.4465931391 
0.7204079258 
0.7172202873 
0.7126977081 
0.7067177554 
0.6989139089 
0.6883454326 
0.6717921348 
0.2162751446 
0.2000069232 
0.2 
0.2 
0.2 
0.2 
0.2 
0.6321868173 
0.6301777783 
0.6226024705 
0.6095246694 
0.5879036639 
0.5480919528 
0.4424524287 
0.7104247841 
0.7074979563 
0.7033841883 
0.6979206095 
0.6906776649 
0.6805936205 
0.6641991885 
0.2175034788 
0.2000086625 
0.2 
0.2 
0.2 
0.2 
0.2 
0.6249538365 
0.6235807818 
0.6166531699 
0.6044348868 
0.5837276667 
0.5446407088 
0.4385643959 
0.7004913752 
0.6978837302 
0.6942944202 
0.6895337617 
0.6831217905 
0.6738691688 
0.6579603491 
0.2189129548 
0.2000107155 
0.2 
0.2 
0.2 
0.2 
0.2 
0.6170984422 
0.6163539422 
0.6103492033 
0.5992518944 
0.579733482 
0.5417127963 
0.4355582968 
0.6904612515 
0.6882336135 
0.6852818666 
0.6814145723 
0.6761422964 
0.6682036956 
0.6534331221 
0.2213994356 
0.2000142452 
0.2 
0.2 
0.2 
0.2 
0.2 
0.6081581026 
0.6081615337 
0.6035609692 
0.5940352657 
0.5761472706 
0.539704709 
0.4341484374 
0.6800996102 
0.678300047 
0.6760668686 
0.6732440425 
0.6694132419 
0.6634165704 
0.6511286794 
0.2273757275 
0.2000220925 
0.2 
0.2 
0.2 
0.2 
0.2 
0.5968322856 
0.598109337 
0.5957579746 
0.5885683503 
0.5730162334 
0.5389194155 
0.4351321902 
0.6690571674 
0.667700962 
0.6661923786 
0.6644391866 
0.6621838932 
0.6586637297 
0.650901497 
0.645244693 
0.6389582678 
0.6321868173 
0.6249538365 
0.6170984422 
0.6081581026 
0.5968322856 
0.5883448526 
0.5871781985 
0.5865471875 
0.5822932937 
0.5700292155 
0.5394232788 
0.4392983194 
0.6568162608 
0.6558710523 
0.6549830621 
0.6540879034 
0.6530009798 
0.6511863307 
0.6468756089 
0.6418631349 
0.6362710554 
0.6301777783 
0.6235807818 
0.6163539422 
0.6081615337 
0.598109337 
0.5871781985 
0.5808779186 
0.5783855141 
0.5755644849 
0.5667962291 
0.5409611925 
0.4472503803 
0.6425698476 
0.6419680372 
0.6415377789 
0.6412061822 
0.6407935866 
0.6398634416 
0.6373377838 
0.6331893105 
0.6281657719 
0.6226024705 
0.6166531699 
0.6103492033 
0.6035609692 
0.5957579746 
0.5865471875 
0.5783855141 
0.5732148592 
0.569798506 
0.5634837734 
0.543142227 
0.4592643847 
0.6248756345 
0.6245347446 
0.6243950235 
0.6243582092 
0.624226299 
0.6236182802 
0.6218510901 
0.6185903911 
0.6143393865 
0.6095246694 
0.6044348868 
0.5992518944 
0.5940352657 
0.5885683503 
0.5822932937 
0.5755644849 
0.569798506 
0.5655824008 
0.5605855143 
0.5456359831 
0.4751934626 
0.6005102354 
0.6003490367 
0.6003615124 
0.6004229662 
0.6003213737 
0.5997286251 
0.5982097889 
0.5955244558 
0.591956805 
0.5879036639 
0.5837276667 
0.579733482 
0.5761472706 
0.5730162334 
0.5700292155 
0.5667962291 
0.5634837734 
0.5605855143 
0.557360375 
0.547724475 
0.4941088629 
0.5598052913 
0.5597551944 
0.5598270272 
0.559870832 
0.5596646913 
0.5589238702 
0.5573609828 
0.5548597879 
0.5516412842 
0.5480919528 
0.5446407088 
0.5417127963 
0.539704709 
0.5389194155 
0.5394232788 
0.5409611925 
0.543142227 
0.5456359831 
0.547724475 
0.5455884728 
0.5124640947 
0.4569307075 
0.4569471617 
0.4570563112 
0.4570500951 
0.4566520449 
0.4555527229 
0.4534966248 
0.4504267421 
0.4465931391 
0.4424524287 
0.4385643959 
0.4355582968 
0.4341484374 
0.4351321902 
0.4392983194 
0.4472503803 
0.4592643847 
0.4751934626 
0.4941088629 
0.5124640947 
0.5115291356 
SCALARS permeabilityx double 1
LOOKUP_TABLE default
1 
1 
1 
1 
1 
1 
1 
1 
1 
1 
1 
1 
1 
1 
1 
1 
1 
1 
1 
1 
1 
1 
1 
1 
1 
1 
1 
1 
1 
1 
1 
1 
1 
1 
1 
1 
1 
1 
1 
1 
1 
1 
1 
1 
1 
1 
1 
1 
1 
1 
1 
1 
1 
1 
1 
1 
1 
1 
1 
1 
1 
1 
1 
1 
1 
1 
1 
1 
1 
1 
1 
1 
1 
1 
1 
1 
1 
1 
1 
1 
1 
1 
1 
1 
1 
1 
1 
1 
1 
1 
1 
1 
1 
1 
1 
1 
1 
1 
1 
1 
1 
1 
1 
1 
1 
1 
1 
1 
1 
1 
1 
1 
1 
1 
1 
1 
1 
1 
1 
1 
1 
1 
1 
1 
1 
1 
1 
1 
1 
1 
1 
1 
1 
1 
1 
1 
1 
1 
1 
1 
1 
1 
1 
1 
1 
1 
1 
1 
1 
1 
1 
1 
1 
1 
0.001 
0.001 
0.001 
0.001 
0.001 
0.001 
0.001 
1 
1 
1 
1 
1 
1 
1 
1 
1 
1 
1 
1 
1 
1 
0.001 
0.001 
0.001 
0.001 
0.001 
0.001 
0.001 
1 
1 
1 
1 
1 
1 
1 
1 
1 
1 
1 
1 
1 
1 
0.001 
0.001 
0.001 
0.001 
0.001 
0.001 
0.001 
1 
1 
1 
1 
1 
1 
1 
1 
1 
1 
1 
1 
1 
1 
0.001 
0.001 
0.001 
0.001 
0.001 
0.001 
0.001 
1 
1 
1 
1 
1 
1 
1 
1 
1 
1 
1 
1 
1 
1 
0.001 
0.001 
0.001 
0.001 
0.001 
0.001 
0.001 
1 
1 
1 
1 
1 
1 
1 
1 
1 
1 
1 
1 
1 
1 
0.001 
0.001 
0.001 
0.001 
0.001 
0.001 
0.001 
1 
1 
1 
1 
1 
1 
1 
1 
1 
1 
1 
1 
1 
1 
0.001 
0.001 
0.001 
0.001 
0.001 
0.001 
0.001 
1 
1 
1 
1 
1 
1 
1 
1 
1 
1 
1 
1 
1 
1 
1 
1 
1 
1 
1 
1 
1 
1 
1 
1 
1 
1 
1 
1 
1 
1 
1 
1 
1 
1 
1 
1 
1 
1 
1 
1 
1 
1 
1 
1 
1 
1 
1 
1 
1 
1 
1 
1 
1 
1 
1 
1 
1 
1 
1 
1 
1 
1 
1 
1 
1 
1 
1 
1 
1 
1 
1 
1 
1 
1 
1 
1 
1 
1 
1 
1 
1 
1 
1 
1 
1 
1 
1 
1 
1 
1 
1 
1 
1 
1 
1 
1 
1 
1 
1 
1 
1 
1 
1 
1 
1 
1 
1 
1 
1 
1 
1 
1 
1 
1 
1 
1 
1 
1 
1 
1 
1 
1 
1 
1 
1 
1 
1 
1 
1 
1 
1 
1 
1 
1 
1 
1 
1 
1 
1 
1 
1 
1 
1 
1 
1 
1 
1 
1 
1 
1 
1 
1 
1 
1 
