# vtk DataFile Version 3.0
MOAB 5.4.1
ASCII
DATASET UNSTRUCTURED_GRID
POINTS 968 double
0 0 0
1 0 0
2 0 0
3 0 0
4 0 0
5 0 0
6 0 0
7 0 0
8 0 0
9 0 0
10 0 0
11 0 0
12 0 0
13 0 0
14 0 0
15 0 0
16 0 0
17 0 0
18 0 0
19 0 0
20 0 0
21 0 0
0 1 0
1 1 0
2 1 0
3 1 0
4 1 0
5 1 0
6 1 0
7 1 0
8 1 0
9 1 0
10 1 0
11 1 0
12 1 0
13 1 0
14 1 0
15 1 0
16 1 0
17 1 0
18 1 0
19 1 0
20 1 0
21 1 0
0 2 0
1 2 0
2 2 0
3 2 0
4 2 0
5 2 0
6 2 0
7 2 0
8 2 0
9 2 0
10 2 0
11 2 0
12 2 0
13 2 0
14 2 0
15 2 0
16 2 0
17 2 0
18 2 0
19 2 0
20 2 0
21 2 0
0 3 0
1 3 0
2 3 0
3 3 0
4 3 0
5 3 0
6 3 0
7 3 0
8 3 0
9 3 0
10 3 0
11 3 0
12 3 0
13 3 0
14 3 0
15 3 0
16 3 0
17 3 0
18 3 0
19 3 0
20 3 0
21 3 0
0 4 0
1 4 0
2 4 0
3 4 0
4 4 0
5 4 0
6 4 0
7 4 0
8 4 0
9 4 0
10 4 0
11 4 0
12 4 0
13 4 0
14 4 0
15 4 0
16 4 0
17 4 0
18 4 0
19 4 0
20 4 0
21 4 0
0 5 0
1 5 0
2 5 0
3 5 0
4 5 0
5 5 0
6 5 0
7 5 0
8 5 0
9 5 0
10 5 0
11 5 0
12 5 0
13 5 0
14 5 0
15 5 0
16 5 0
17 5 0
18 5 0
19 5 0
20 5 0
21 5 0
0 6 0
1 6 0
2 6 0
3 6 0
4 6 0
5 6 0
6 6 0
7 6 0
8 6 0
9 6 0
10 6 0
11 6 0
12 6 0
13 6 0
14 6 0
15 6 0
16 6 0
17 6 0
18 6 0
19 6 0
20 6 0
21 6 0
0 7 0
1 7 0
2 7 0
3 7 0
4 7 0
5 7 0
6 7 0
7 7 0
8 7 0
9 7 0
10 7 0
11 7 0
12 7 0
13 7 0
14 7 0
15 7 0
16 7 0
17 7 0
18 7 0
19 7 0
20 7 0
21 7 0
0 8 0
1 8 0
2 8 0
3 8 0
4 8 0
5 8 0
6 8 0
7 8 0
8 8 0
9 8 0
10 8 0
11 8 0
12 8 0
13 8 0
14 8 0
15 8 0
16 8 0
17 8 0
18 8 0
19 8 0
20 8 0
21 8 0
0 9 0
1 9 0
2 9 0
3 9 0
4 9 0
5 9 0
6 9 0
7 9 0
8 9 0
9 9 0
10 9 0
11 9 0
12 9 0
13 9 0
14 9 0
15 9 0
16 9 0
17 9 0
18 9 0
19 9 0
20 9 0
21 9 0
0 10 0
1 10 0
2 10 0
3 10 0
4 10 0
5 10 0
6 10 0
7 10 0
8 10 0
9 10 0
10 10 0
11 10 0
12 10 0
13 10 0
14 10 0
15 10 0
16 10 0
17 10 0
18 10 0
19 10 0
20 10 0
21 10 0
0 11 0
1 11 0
2 11 0
3 11 0
4 11 0
5 11 0
6 11 0
7 11 0
8 11 0
9 11 0
10 11 0
11 11 0
12 11 0
13 11 0
14 11 0
15 11 0
16 11 0
17 11 0
18 11 0
19 11 0
20 11 0
21 11 0
0 12 0
1 12 0
2 12 0
3 12 0
4 12 0
5 12 0
6 12 0
7 12 0
8 12 0
9 12 0
10 12 0
11 12 0
12 12 0
13 12 0
14 12 0
15 12 0
16 12 0
17 12 0
18 12 0
19 12 0
20 12 0
21 12 0
0 13 0
1 13 0
2 13 0
3 13 0
4 13 0
5 13 0
6 13 0
7 13 0
8 13 0
9 13 0
10 13 0
11 13 0
12 13 0
13 13 0
14 13 0
15 13 0
16 13 0
17 13 0
18 13 0
19 13 0
20 13 0
21 13 0
0 14 0
1 14 0
2 14 0
3 14 0
4 14 0
5 14 0
6 14 0
7 14 0
8 14 0
9 14 0
10 14 0
11 14 0
12 14 0
13 14 0
14 14 0
15 14 0
16 14 0
17 14 0
18 14 0
19 14 0
20 14 0
21 14 0
0 15 0
1 15 0
2 15 0
3 15 0
4 15 0
5 15 0
6 15 0
7 15 0
8 15 0
9 15 0
10 15 0
11 15 0
12 15 0
13 15 0
14 15 0
15 15 0
16 15 0
17 15 0
18 15 0
19 15 0
20 15 0
21 15 0
0 16 0
1 16 0
2 16 0
3 16 0
4 16 0
5 16 0
6 16 0
7 16 0
8 16 0
9 16 0
10 16 0
11 16 0
12 16 0
13 16 0
14 16 0
15 16 0
16 16 0
17 16 0
18 16 0
19 16 0
20 16 0
21 16 0
0 17 0
1 17 0
2 17 0
3 17 0
4 17 0
5 17 0
6 17 0
7 17 0
8 17 0
9 17 0
10 17 0
11 17 0
12 17 0
13 17 0
14 17 0
15 17 0
16 17 0
17 17 0
18 17 0
19 17 0
20 17 0
21 17 0
0 18 0
1 18 0
2 18 0
3 18 0
4 18 0
5 18 0
6 18 0
7 18 0
8 18 0
9 18 0
10 18 0
11 18 0
12 18 0
13 18 0
14 18 0
15 18 0
16 18 0
17 18 0
18 18 0
19 18 0
20 18 0
21 18 0
0 19 0
1 19 0
2 19 0
3 19 0
4 19 0
5 19 0
6 19 0
7 19 0
8 19 0
9 19 0
10 19 0
11 19 0
12 19 0
13 19 0
14 19 0
15 19 0
16 19 0
17 19 0
18 19 0
19 19 0
20 19 0
21 19 0
0 20 0
1 20 0
2 20 0
3 20 0
4 20 0
5 20 0
6 20 0
7 20 0
8 20 0
9 20 0
10 20 0
11 20 0
12 20 0
13 20 0
14 20 0
15 20 0
16 20 0
17 20 0
18 20 0
19 20 0
20 20 0
21 20 0
0 21 0
1 21 0
2 21 0
3 21 0
4 21 0
5 21 0
6 21 0
7 21 0
8 21 0
9 21 0
10 21 0
11 21 0
12 21 0
13 21 0
14 21 0
15 21 0
16 21 0
17 21 0
18 21 0
19 21 0
20 21 0
21 21 0
0 0 1
1 0 1
2 0 1
3 0 1
4 0 1
5 0 1
6 0 1
7 0 1
8 0 1
9 0 1
10 0 1
11 0 1
12 0 1
13 0 1
14 0 1
15 0 1
16 0 1
17 0 1
18 0 1
19 0 1
20 0 1
21 0 1
0 1 1
1 1 1
2 1 1
3 1 1
4 1 1
5 1 1
6 1 1
7 1 1
8 1 1
9 1 1
10 1 1
11 1 1
12 1 1
13 1 1
14 1 1
15 1 1
16 1 1
17 1 1
18 1 1
19 1 1
20 1 1
21 1 1
0 2 1
1 2 1
2 2 1
3 2 1
4 2 1
5 2 1
6 2 1
7 2 1
8 2 1
9 2 1
10 2 1
11 2 1
12 2 1
13 2 1
14 2 1
15 2 1
16 2 1
17 2 1
18 2 1
19 2 1
20 2 1
21 2 1
0 3 1
1 3 1
2 3 1
3 3 1
4 3 1
5 3 1
6 3 1
7 3 1
8 3 1
9 3 1
10 3 1
11 3 1
12 3 1
13 3 1
14 3 1
15 3 1
16 3 1
17 3 1
18 3 1
19 3 1
20 3 1
21 3 1
0 4 1
1 4 1
2 4 1
3 4 1
4 4 1
5 4 1
6 4 1
7 4 1
8 4 1
9 4 1
10 4 1
11 4 1
12 4 1
13 4 1
14 4 1
15 4 1
16 4 1
17 4 1
18 4 1
19 4 1
20 4 1
21 4 1
0 5 1
1 5 1
2 5 1
3 5 1
4 5 1
5 5 1
6 5 1
7 5 1
8 5 1
9 5 1
10 5 1
11 5 1
12 5 1
13 5 1
14 5 1
15 5 1
16 5 1
17 5 1
18 5 1
19 5 1
20 5 1
21 5 1
0 6 1
1 6 1
2 6 1
3 6 1
4 6 1
5 6 1
6 6 1
7 6 1
8 6 1
9 6 1
10 6 1
11 6 1
12 6 1
13 6 1
14 6 1
15 6 1
16 6 1
17 6 1
18 6 1
19 6 1
20 6 1
21 6 1
0 7 1
1 7 1
2 7 1
3 7 1
4 7 1
5 7 1
6 7 1
7 7 1
8 7 1
9 7 1
10 7 1
11 7 1
12 7 1
13 7 1
14 7 1
15 7 1
16 7 1
17 7 1
18 7 1
19 7 1
20 7 1
21 7 1
0 8 1
1 8 1
2 8 1
3 8 1
4 8 1
5 8 1
6 8 1
7 8 1
8 8 1
9 8 1
10 8 1
11 8 1
12 8 1
13 8 1
14 8 1
15 8 1
16 8 1
17 8 1
18 8 1
19 8 1
20 8 1
21 8 1
0 9 1
1 9 1
2 9 1
3 9 1
4 9 1
5 9 1
6 9 1
7 9 1
8 9 1
9 9 1
10 9 1
11 9 1
12 9 1
13 9 1
14 9 1
15 9 1
16 9 1
17 9 1
18 9 1
19 9 1
20 9 1
21 9 1
0 10 1
1 10 1
2 10 1
3 10 1
4 10 1
5 10 1
6 10 1
7 10 1
8 10 1
9 10 1
10 10 1
11 10 1
12 10 1
13 10 1
14 10 1
15 10 1
16 10 1
17 10 1
18 10 1
19 10 1
20 10 1
21 10 1
0 11 1
1 11 1
2 11 1
3 11 1
4 11 1
5 11 1
6 11 1
7 11 1
8 11 1
9 11 1
10 11 1
11 11 1
12 11 1
13 11 1
14 11 1
15 11 1
16 11 1
17 11 1
18 11 1
19 11 1
20 11 1
21 11 1
0 12 1
1 12 1
2 12 1
3 12 1
4 12 1
5 12 1
6 12 1
7 12 1
8 12 1
9 12 1
10 12 1
11 12 1
12 12 1
13 12 1
14 12 1
15 12 1
16 12 1
17 12 1
18 12 1
19 12 1
20 12 1
21 12 1
0 13 1
1 13 1
2 13 1
3 13 1
4 13 1
5 13 1
6 13 1
7 13 1
8 13 1
9 13 1
10 13 1
11 13 1
12 13 1
13 13 1
14 13 1
15 13 1
16 13 1
17 13 1
18 13 1
19 13 1
20 13 1
21 13 1
0 14 1
1 14 1
2 14 1
3 14 1
4 14 1
5 14 1
6 14 1
7 14 1
8 14 1
9 14 1
10 14 1
11 14 1
12 14 1
13 14 1
14 14 1
15 14 1
16 14 1
17 14 1
18 14 1
19 14 1
20 14 1
21 14 1
0 15 1
1 15 1
2 15 1
3 15 1
4 15 1
5 15 1
6 15 1
7 15 1
8 15 1
9 15 1
10 15 1
11 15 1
12 15 1
13 15 1
14 15 1
15 15 1
16 15 1
17 15 1
18 15 1
19 15 1
20 15 1
21 15 1
0 16 1
1 16 1
2 16 1
3 16 1
4 16 1
5 16 1
6 16 1
7 16 1
8 16 1
9 16 1
10 16 1
11 16 1
12 16 1
13 16 1
14 16 1
15 16 1
16 16 1
17 16 1
18 16 1
19 16 1
20 16 1
21 16 1
0 17 1
1 17 1
2 17 1
3 17 1
4 17 1
5 17 1
6 17 1
7 17 1
8 17 1
9 17 1
10 17 1
11 17 1
12 17 1
13 17 1
14 17 1
15 17 1
16 17 1
17 17 1
18 17 1
19 17 1
20 17 1
21 17 1
0 18 1
1 18 1
2 18 1
3 18 1
4 18 1
5 18 1
6 18 1
7 18 1
8 18 1
9 18 1
10 18 1
11 18 1
12 18 1
13 18 1
14 18 1
15 18 1
16 18 1
17 18 1
18 18 1
19 18 1
20 18 1
21 18 1
0 19 1
1 19 1
2 19 1
3 19 1
4 19 1
5 19 1
6 19 1
7 19 1
8 19 1
9 19 1
10 19 1
11 19 1
12 19 1
13 19 1
14 19 1
15 19 1
16 19 1
17 19 1
18 19 1
19 19 1
20 19 1
21 19 1
0 20 1
1 20 1
2 20 1
3 20 1
4 20 1
5 20 1
6 20 1
7 20 1
8 20 1
9 20 1
10 20 1
11 20 1
12 20 1
13 20 1
14 20 1
15 20 1
16 20 1
17 20 1
18 20 1
19 20 1
20 20 1
21 20 1
0 21 1
1 21 1
2 21 1
3 21 1
4 21 1
5 21 1
6 21 1
7 21 1
8 21 1
9 21 1
10 21 1
11 21 1
12 21 1
13 21 1
14 21 1
15 21 1
16 21 1
17 21 1
18 21 1
19 21 1
20 21 1
21 21 1
CELLS 441 3969
8 0 1 23 22 484 485 507 506
8 22 23 45 44 506 507 529 528
8 44 45 67 66 528 529 551 550
8 66 67 89 88 550 551 573 572
8 88 89 111 110 572 573 595 594
8 110 111 133 132 594 595 617 616
8 132 133 155 154 616 617 639 638
8 154 155 177 176 638 639 661 660
8 176 177 199 198 660 661 683 682
8 198 199 221 220 682 683 705 704
8 220 221 243 242 704 705 727 726
8 242 243 265 264 726 727 749 748
8 264 265 287 286 748 749 771 770
8 286 287 309 308 770 771 793 792
8 308 309 331 330 792 793 815 814
8 330 331 353 352 814 815 837 836
8 352 353 375 374 836 837 859 858
8 374 375 397 396 858 859 881 880
8 396 397 419 418 880 881 903 902
8 418 419 441 440 902 903 925 924
8 440 441 463 462 924 925 947 946
8 1 2 24 23 485 486 508 507
8 23 24 46 45 507 508 530 529
8 45 46 68 67 529 530 552 551
8 67 68 90 89 551 552 574 573
8 89 90 112 111 573 574 596 595
8 111 112 134 133 595 596 618 617
8 133 134 156 155 617 618 640 639
8 155 156 178 177 639 640 662 661
8 177 178 200 199 661 662 684 683
8 199 200 222 221 683 684 706 705
8 221 222 244 243 705 706 728 727
8 243 244 266 265 727 728 750 749
8 265 266 288 287 749 750 772 771
8 287 288 310 309 771 772 794 793
8 309 310 332 331 793 794 816 815
8 331 332 354 353 815 816 838 837
8 353 354 376 375 837 838 860 859
8 375 376 398 397 859 860 882 881
8 397 398 420 419 881 882 904 903
8 419 420 442 441 903 904 926 925
8 441 442 464 463 925 926 948 947
8 2 3 25 24 486 487 509 508
8 24 25 47 46 508 509 531 530
8 46 47 69 68 530 531 553 552
8 68 69 91 90 552 553 575 574
8 90 91 113 112 574 575 597 596
8 112 113 135 134 596 597 619 618
8 134 135 157 156 618 619 641 640
8 156 157 179 178 640 641 663 662
8 178 179 201 200 662 663 685 684
8 200 201 223 222 684 685 707 706
8 222 223 245 244 706 707 729 728
8 244 245 267 266 728 729 751 750
8 266 267 289 288 750 751 773 772
8 288 289 311 310 772 773 795 794
8 310 311 333 332 794 795 817 816
8 332 333 355 354 816 817 839 838
8 354 355 377 376 838 839 861 860
8 376 377 399 398 860 861 883 882
8 398 399 421 420 882 883 905 904
8 420 421 443 442 904 905 927 926
8 442 443 465 464 926 927 949 948
8 3 4 26 25 487 488 510 509
8 25 26 48 47 509 510 532 531
8 47 48 70 69 531 532 554 553
8 69 70 92 91 553 554 576 575
8 91 92 114 113 575 576 598 597
8 113 114 136 135 597 598 620 619
8 135 136 158 157 619 620 642 641
8 157 158 180 179 641 642 664 663
8 179 180 202 201 663 664 686 685
8 201 202 224 223 685 686 708 707
8 223 224 246 245 707 708 730 729
8 245 246 268 267 729 730 752 751
8 267 268 290 289 751 752 774 773
8 289 290 312 311 773 774 796 795
8 311 312 334 333 795 796 818 817
8 333 334 356 355 817 818 840 839
8 355 356 378 377 839 840 862 861
8 377 378 400 399 861 862 884 883
8 399 400 422 421 883 884 906 905
8 421 422 444 443 905 906 928 927
8 443 444 466 465 927 928 950 949
8 4 5 27 26 488 489 511 510
8 26 27 49 48 510 511 533 532
8 48 49 71 70 532 533 555 554
8 70 71 93 92 554 555 577 576
8 92 93 115 114 576 577 599 598
8 114 115 137 136 598 599 621 620
8 136 137 159 158 620 621 643 642
8 158 159 181 180 642 643 665 664
[...]
POINT_DATA 968
SCALARS GLOBAL_ID int 1
LOOKUP_TABLE default
-1 
-1 
-1 
-1 
-1 
-1 
-1 
-1 
-1 
-1 
-1 
-1 
-1 
-1 
-1 
-1 
-1 
-1 
-1 
-1 
-1 
-1 
-1 
-1 
-1 
-1 
-1 
-1 
-1 
-1 
-1 
-1 
-1 
-1 
-1 
-1 
-1 
-1 
-1 
-1 
-1 
-1 
-1 
-1 
-1 
-1 
-1 
-1 
-1 
-1 
-1 
-1 
-1 
-1 
-1 
-1 
-1 
-1 
-1 
-1 
-1 
-1 
-1 
-1 
-1 
-1 
-1 
-1 
-1 
-1 
-1 
-1 
-1 
-1 
-1 
-1 
-1 
-1 
-1 
-1 
-1 
-1 
-1 
-1 
-1 
-1 
-1 
-1 
-1 
-1 
-1 
-1 
-1 
-1 
-1 
-1 
-1 
-1 
-1 
-1 
-1 
-1 
-1 
-1 
-1 
-1 
-1 
-1 
-1 
-1 
-1 
-1 
-1 
-1 
-1 
-1 
-1 
-1 
-1 
-1 
-1 
-1 
-1 
-1 
-1 
-1 
-1 
-1 
-1 
-1 
-1 
-1 
-1 
-1 
-1 
-1 
-1 
-1 
-1 
-1 
-1 
-1 
-1 
-1 
-1 
-1 
-1 
-1 
-1 
-1 
-1 
-1 
-1 
-1 
-1 
-1 
-1 
-1 
-1 
-1 
-1 
-1 
-1 
-1 
-1 
-1 
-1 
-1 
-1 
-1 
-1 
-1 
-1 
-1 
-1 
-1 
-1 
-1 
-1 
-1 
-1 
-1 
-1 
-1 
-1 
-1 
-1 
-1 
-1 
-1 
-1 
-1 
-1 
-1 
-1 
-1 
-1 
-1 
-1 
-1 
-1 
-1 
-1 
-1 
-1 
-1 
-1 
-1 
-1 
-1 
-1 
-1 
-1 
-1 
-1 
-1 
-1 
-1 
-1 
-1 
-1 
-1 
-1 
-1 
-1 
-1 
-1 
-1 
-1 
-1 
-1 
-1 
-1 
-1 
-1 
-1 
-1 
-1 
-1 
-1 
-1 
-1 
-1 
-1 
-1 
-1 
-1 
-1 
-1 
-1 
-1 
-1 
-1 
-1 
-1 
-1 
-1 
-1 
-1 
-1 
-1 
-1 
-1 
-1 
-1 
-1 
-1 
-1 
-1 
-1 
-1 
-1 
-1 
-1 
-1 
-1 
-1 
-1 
-1 
-1 
-1 
-1 
-1 
-1 
-1 
-1 
-1 
-1 
-1 
-1 
-1 
-1 
-1 
-1 
-1 
-1 
-1 
-1 
-1 
-1 
-1 
-1 
-1 
-1 
-1 
-1 
-1 
-1 
-1 
-1 
-1 
-1 
-1 
-1 
-1 
-1 
-1 
-1 
-1 
-1 
-1 
-1 
-1 
-1 
-1 
-1 
-1 
-1 
-1 
-1 
-1 
-1 
-1 
-1 
-1 
-1 
-1 
-1 
-1 
-1 
-1 
-1 
-1 
-1 
-1 
-1 
-1 
-1 
-1 
-1 
-1 
-1 
-1 
-1 
-1 
-1 
-1 
-1 
-1 
-1 
-1 
-1 
-1 
-1 
-1 
-1 
-1 
-1 
-1 
-1 
-1 
-1 
-1 
-1 
-1 
-1 
-1 
-1 
-1 
-1 
-1 
-1 
-1 
-1 
-1 
-1 
-1 
-1 
-1 
-1 
-1 
-1 
-1 
-1 
-1 
-1 
-1 
-1 
-1 
-1 
-1 
-1 
-1 
-1 
-1 
-1 
-1 
-1 
-1 
-1 
-1 
-1 
-1 
-1 
-1 
-1 
-1 
-1 
-1 
-1 
-1 
-1 
-1 
-1 
-1 
-1 
-1 
-1 
-1 
-1 
-1 
-1 
-1 
-1 
-1 
-1 
-1 
-1 
-1 
-1 
-1 
-1 
-1 
-1 
-1 
-1 
-1 
-1 
-1 
-1 
-1 
-1 
-1 
-1 
-1 
-1 
-1 
-1 
-1 
-1 
-1 
-1 
-1 
-1 
-1 
-1 
-1 
-1 
-1 
-1 
-1 
-1 
-1 
-1 
-1 
-1 
-1 
-1 
-1 
-1 
-1 
-1 
-1 
-1 
-1 
-1 
-1 
-1 
-1 
-1 
-1 
-1 
-1 
-1 
-1 
-1 
-1 
-1 
-1 
-1 
-1 
-1 
-1 
-1 
-1 
-1 
-1 
-1 
-1 
-1 
-1 
-1 
-1 
-1 
-1 
-1 
-1 
-1 
-1 
-1 
-1 
-1 
-1 
-1 
-1 
-1 
-1 
-1 
-1 
-1 
-1 
-1 
-1 
-1 
-1 
-1 
-1 
-1 
-1 
-1 
-1 
-1 
-1 
-1 
-1 
-1 
-1 
-1 
-1 
-1 
-1 
-1 
-1 
-1 
-1 
-1 
-1 
-1 
-1 
-1 
-1 
-1 
-1 
-1 
-1 
-1 
-1 
-1 
-1 
-1 
-1 
-1 
-1 
-1 
-1 
-1 
-1 
-1 
-1 
-1 
-1 
-1 
-1 
-1 
-1 
-1 
-1 
-1 
-1 
-1 
-1 
-1 
-1 
-1 
-1 
-1 
-1 
-1 
-1 
-1 
-1 
-1 
-1 
-1 
-1 
-1 
-1 
-1 
-1 
-1 
-1 
-1 
-1 
-1 
-1 
-1 
-1 
-1 
-1 
-1 
-1 
-1 
-1 
-1 
-1 
-1 
-1 
-1 
-1 
-1 
-1 
-1 
-1 
-1 
-1 
-1 
-1 
-1 
-1 
-1 
-1 
-1 
-1 
-1 
-1 
-1 
-1 
-1 
-1 
-1 
-1 
-1 
-1 
-1 
-1 
-1 
-1 
-1 
-1 
-1 
-1 
-1 
-1 
-1 
-1 
-1 
-1 
-1 
-1 
-1 
-1 
-1 
-1 
-1 
-1 
-1 
-1 
-1 
-1 
-1 
-1 
-1 
-1 
-1 
-1 
-1 
-1 
-1 
-1 
-1 
-1 
-1 
-1 
-1 
-1 
-1 
-1 
-1 
-1 
-1 
-1 
-1 
-1 
-1 
-1 
-1 
-1 
-1 
-1 
-1 
-1 
-1 
-1 
-1 
-1 
-1 
-1 
-1 
-1 
-1 
-1 
-1 
-1 
-1 
-1 
-1 
-1 
-1 
-1 
-1 
-1 
-1 
-1 
-1 
-1 
-1 
-1 
-1 
-1 
-1 
-1 
-1 
-1 
-1 
-1 
-1 
-1 
-1 
-1 
-1 
-1 
-1 
-1 
-1 
-1 
-1 
-1 
-1 
-1 
-1 
-1 
-1 
-1 
-1 
-1 
-1 
-1 
-1 
-1 
-1 
-1 
-1 
-1 
-1 
-1 
-1 
-1 
-1 
-1 
-1 
-1 
-1 
-1 
-1 
-1 
-1 
-1 
-1 
-1 
-1 
-1 
-1 
-1 
-1 
-1 
-1 
-1 
-1 
-1 
-1 
-1 
-1 
-1 
-1 
-1 
-1 
-1 
-1 
-1 
-1 
-1 
-1 
-1 
-1 
-1 
-1 
-1 
-1 
-1 
-1 
-1 
-1 
-1 
-1 
-1 
-1 
-1 
-1 
-1 
-1 
-1 
-1 
-1 
-1 
-1 
-1 
-1 
-1 
-1 
-1 
-1 
-1 
-1 
-1 
-1 
-1 
-1 
-1 
-1 
-1 
-1 
-1 
-1 
-1 
-1 
-1 
-1 
-1 
-1 
-1 
-1 
-1 
-1 
-1 
-1 
-1 
-1 
-1 
-1 
-1 
-1 
-1 
-1 
-1 
-1 
-1 
-1 
-1 
-1 
-1 
-1 
-1 
-1 
-1 
-1 
-1 
-1 
-1 
-1 
-1 
-1 
-1 
-1 
-1 
-1 
-1 
-1 
-1 
-1 
-1 
-1 
-1 
-1 
-1 
-1 
-1 
-1 
-1 
-1 
-1 
-1 
-1 
-1 
-1 
-1 
-1 
-1 
-1 
-1 
-1 
-1 
-1 
-1 
-1 
-1 
-1 
-1 
-1 
-1 
-1 
-1 
-1 
-1 
-1 
-1 
-1 
-1 
-1 
-1 
-1 
-1 
-1 
-1 
-1 
-1 
-1 
-1 
-1 
-1 
-1 
-1 
-1 
-1 
-1 
-1 
-1 
-1 
-1 
-1 
-1 
-1 
-1 
-1 
-1 
-1 
-1 
-1 
-1 
CELL_DATA 441
SCALARS GLOBAL_ID int 1
LOOKUP_TABLE default
-1 
-1 
-1 
-1 
-1 
-1 
-1 
-1 
-1 
-1 
-1 
-1 
-1 
-1 
-1 
-1 
-1 
-1 
-1 
-1 
-1 
-1 
-1 
-1 
-1 
-1 
-1 
-1 
-1 
-1 
-1 
-1 
-1 
-1 
-1 
-1 
-1 
-1 
-1 
-1 
-1 
-1 
-1 
-1 
-1 
-1 
-1 
-1 
-1 
-1 
-1 
-1 
-1 
-1 
-1 
-1 
-1 
-1 
-1 
-1 
-1 
-1 
-1 
-1 
-1 
-1 
-1 
-1 
-1 
-1 
-1 
-1 
-1 
-1 
-1 
-1 
-1 
-1 
-1 
-1 
-1 
-1 
-1 
-1 
-1 
-1 
-1 
-1 
-1 
-1 
-1 
-1 
-1 
-1 
-1 
-1 
-1 
-1 
-1 
-1 
-1 
-1 
-1 
-1 
-1 
-1 
-1 
-1 
-1 
-1 
-1 
-1 
-1 
-1 
-1 
-1 
-1 
-1 
-1 
-1 
-1 
-1 
-1 
-1 
-1 
-1 
-1 
-1 
-1 
-1 
-1 
-1 
-1 
-1 
-1 
-1 
-1 
-1 
-1 
-1 
-1 
-1 
-1 
-1 
-1 
-1 
-1 
-1 
-1 
-1 
-1 
-1 
-1 
-1 
-1 
-1 
-1 
-1 
-1 
-1 
-1 
-1 
-1 
-1 
-1 
-1 
-1 
-1 
-1 
-1 
-1 
-1 
-1 
-1 
-1 
-1 
-1 
-1 
-1 
-1 
-1 
-1 
-1 
-1 
-1 
-1 
-1 
-1 
-1 
-1 
-1 
-1 
-1 
-1 
-1 
-1 
-1 
-1 
-1 
-1 
-1 
-1 
-1 
-1 
-1 
-1 
-1 
-1 
-1 
-1 
-1 
-1 
-1 
-1 
-1 
-1 
-1 
-1 
-1 
-1 
-1 
-1 
-1 
-1 
-1 
-1 
-1 
-1 
-1 
-1 
-1 
-1 
-1 
-1 
-1 
-1 
-1 
-1 
-1 
-1 
-1 
-1 
-1 
-1 
-1 
-1 
-1 
-1 
-1 
-1 
-1 
-1 
-1 
-1 
-1 
-1 
-1 
-1 
-1 
-1 
-1 
-1 
-1 
-1 
-1 
-1 
-1 
-1 
-1 
-1 
-1 
-1 
-1 
-1 
-1 
-1 
-1 
-1 
-1 
-1 
-1 
-1 
-1 
-1 
-1 
-1 
-1 
-1 
-1 
-1 
-1 
-1 
-1 
-1 
-1 
-1 
-1 
-1 
-1 
-1 
-1 
-1 
-1 
-1 
-1 
-1 
-1 
-1 
-1 
-1 
-1 
-1 
-1 
-1 
-1 
-1 
-1 
-1 
-1 
-1 
-1 
-1 
-1 
-1 
-1 
-1 
-1 
-1 
-1 
-1 
-1 
-1 
-1 
-1 
-1 
-1 
-1 
-1 
-1 
-1 
-1 
-1 
-1 
-1 
-1 
-1 
-1 
-1 
-1 
-1 
-1 
-1 
-1 
-1 
-1 
-1 
-1 
-1 
-1 
-1 
-1 
-1 
-1 
-1 
-1 
-1 
-1 
-1 
-1 
-1 
-1 
-1 
-1 
-1 
-1 
-1 
-1 
-1 
-1 
-1 
-1 
-1 
-1 
-1 
-1 
-1 
-1 
-1 
-1 
-1 
-1 
-1 
-1 
-1 
-1 
-1 
-1 
-1 
-1 
-1 
-1 
-1 
-1 
-1 
-1 
-1 
-1 
-1 
-1 
-1 
-1 
-1 
-1 
-1 
-1 
-1 
-1 
-1 
-1 
-1 
-1 
-1 
-1 
-1 
-1 
-1 
-1 
-1 
-1 
-1 
-1 
-1 
-1 
-1 
-1 
-1 
-1 
-1 
-1 
-1 
-1 
SCALARS pressure double 1
LOOKUP_TABLE default
100 
93.38993029 
89.28983479 
86.36940246 
84.07654939 
82.15137441 
80.45393872 
78.90082914 
77.43991355 
76.03975079 
74.68465954 
73.37203796 
72.11051602 
70.91795303 
69.81828352 
68.83669466 
67.99440234 
67.30627176 
66.78109628 
66.42288171 
66.23320121 
93.38993029 
90.72530121 
88.01329236 
85.6582338 
83.63426071 
81.85586149 
80.247269 
78.75068131 
77.32478024 
75.94321268 
74.59310117 
73.2737925 
71.99600149 
70.78080712 
69.65701471 
68.65506381 
67.79853748 
67.10190266 
66.57232178 
66.2121236 
66.02169539 
89.28983479 
88.01329236 
86.29540983 
84.53897931 
82.87568158 
81.32524638 
79.86793463 
78.47310783 
77.11185472 
75.76447553 
74.42222676 
73.08733593 
71.77367521 
70.50823968 
69.33084441 
68.28570528 
67.40102936 
66.68895961 
66.1522083 
65.78922477 
65.59792195 
86.36940246 
85.6582338 
84.53897931 
83.25500669 
81.93747906 
80.63910285 
79.36760391 
78.10686252 
76.83288378 
75.5308897 
74.19629396 
72.83358339 
71.45836507 
70.10390486 
68.82949211 
67.71356981 
66.78904324 
66.05899397 
65.51616041 
65.15207647 
64.96088551 
84.07654939 
83.63426071 
82.87568158 
81.93747906 
80.916977 
79.86655197 
78.80028674 
77.70058807 
76.53124941 
75.28140659 
73.9517587 
72.5470425 
71.07810916 
69.5761751 
68.12690895 
66.90771369 
65.94054963 
65.19987698 
64.65895629 
64.29929024 
64.11074179 
82.15137441 
81.85586149 
81.32524638 
80.63910285 
79.86655197 
79.05304715 
78.21242968 
77.31256152 
76.26103055 
75.06456826 
73.73667936 
72.28031115 
70.6873566 
68.95293942 
67.15183465 
65.80756677 
64.82340094 
64.09885343 
63.57789184 
63.23260599 
63.05073019 
80.45393872 
80.247269 
79.86793463 
79.36760391 
78.80028674 
78.21242968 
77.63199101 
77.02660537 
76.0882824 
74.93341602 
73.60566728 
72.10674546 
70.39535581 
68.35418351 
65.67805569 
64.30533893 
63.40448648 
62.75199223 
62.27849204 
61.9599798 
61.78911171 
78.90082914 
78.75068131 
78.47310783 
78.10686252 
77.70058807 
77.31256152 
77.02660537 
76.41948486 
75.10483134 
73.70324471 
72.14963113 
70.39722505 
68.31146758 
65.46705868 
62.85890291 
62.2897816 
61.69540525 
61.18403962 
60.78161163 
60.49778017 
60.33978408 
77.43991355 
77.32478024 
77.11185472 
76.83288378 
76.53124941 
76.26103055 
76.0882824 
75.10483134 
73.21348064 
71.40326402 
69.51471548 
67.46104176 
65.11276189 
62.27688397 
60.55038342 
60.25787486 
59.86141501 
59.46507669 
59.12377143 
58.86853822 
58.7197115 
76.03975079 
75.94321268 
75.76447553 
75.5308897 
75.28140659 
75.06456826 
74.93341602 
73.70324471 
71.40326402 
69.29057137 
67.17791549 
64.97813611 
62.59498927 
59.94191283 
58.48147082 
58.28772249 
57.98470431 
57.64835353 
57.3369873 
57.09190964 
56.94280082 
74.68465954 
74.59310117 
74.42222676 
74.19629396 
73.9517587 
73.73667936 
73.60566728 
72.14963113 
69.51471548 
67.17791549 
64.92828903 
62.67866256 
60.34723198 
57.87195238 
56.55517373 
56.38350528 
56.09736825 
55.76239036 
55.43949552 
55.17748163 
55.01382064 
73.37203796 
73.2737925 
73.08733593 
72.83358339 
72.5470425 
72.28031115 
72.10674546 
70.39722505 
67.46104176 
64.97813611 
62.67866256 
60.46099314 
58.24332372 
55.95763869 
54.74948254 
54.54858733 
54.21272961 
53.81750265 
53.4338399 
53.12049904 
52.92376619 
72.11051602 
71.99600149 
71.77367521 
71.45836507 
71.07810916 
70.6873566 
70.39535581 
68.31146758 
65.11276189 
62.59498927 
60.34723198 
58.24332372 
56.20743105 
54.17153838 
53.09238642 
52.80069994 
52.33810194 
51.81042814 
51.3062758 
50.89862205 
50.64583417 
70.91795303 
70.78080712 
70.50823968 
70.10390486 
69.5761751 
68.95293942 
68.35418351 
65.46705868 
62.27688397 
59.94191283 
57.87195238 
55.95763869 
54.17153838 
52.50569319 
51.67193767 
51.17176072 
50.47479187 
49.72425307 
49.02502625 
48.46794368 
48.13010765 
69.81828352 
69.65701471 
69.33084441 
68.82949211 
68.12690895 
67.15183465 
65.67805569 
62.85890291 
60.55038342 
58.48147082 
56.55517373 
54.74948254 
53.09238642 
51.67193767 
50.69168468 
49.68172659 
48.60558748 
47.52532084 
46.53802895 
45.75723963 
45.2943818 
68.83669466 
68.65506381 
68.28570528 
67.71356981 
66.90771369 
65.80756677 
64.30533893 
62.2897816 
60.25787486 
58.28772249 
56.38350528 
54.54858733 
52.80069994 
51.17176072 
49.68172659 
48.19468965 
46.67474002 
45.16572611 
43.77457768 
42.66048369 
42.00698684 
67.99440234 
67.79853748 
67.40102936 
66.78904324 
65.94054963 
64.82340094 
63.40448648 
61.69540525 
59.86141501 
57.98470431 
56.09736825 
54.21272961 
52.33810194 
50.47479187 
48.60558748 
46.67474002 
44.66317042 
42.61513389 
40.65867802 
39.02827309 
38.05354136 
67.30627176 
67.10190266 
66.68895961 
66.05899397 
65.19987698 
64.09885343 
62.75199223 
61.18403962 
59.46507669 
57.64835353 
55.76239036 
53.81750265 
51.81042814 
49.72425307 
47.52532084 
45.16572611 
42.61513389 
39.89614332 
37.13720299 
34.66014286 
33.06719831 
66.78109628 
66.57232178 
66.1522083 
65.51616041 
64.65895629 
63.57789184 
62.27849204 
60.78161163 
59.12377143 
57.3369873 
55.43949552 
53.4338399 
51.3062758 
49.02502625 
46.53802895 
43.77457768 
40.65867802 
37.13720299 
33.25144157 
29.32366712 
26.36395148 
66.42288171 
66.2121236 
65.78922477 
65.15207647 
64.29929024 
63.23260599 
61.9599798 
60.49778017 
58.86853822 
57.09190964 
55.17748163 
53.12049904 
50.89862205 
48.46794368 
45.75723963 
42.66048369 
39.02827309 
34.66014286 
29.32366712 
22.93377119 
16.5048265 
66.23320121 
66.02169539 
65.59792195 
64.96088551 
64.11074179 
63.05073019 
61.78911171 
60.33978408 
58.7197115 
56.94280082 
55.01382064 
52.92376619 
50.64583417 
48.13010765 
45.2943818 
42.00698684 
38.05354136 
33.06719831 
26.36395148 
16.5048265 
0 
SCALARS saturation double 1
LOOKUP_TABLE default
0.8 
0.7930748026 
0.7861067057 
0.7777165198 
0.7682303942 
0.7580146118 
0.7473915426 
0.7366184833 
0.7258746928 
0.71525188 
0.7047537045 
0.6943001166 
0.6837280343 
0.6727801764 
0.6610744081 
0.648040786 
0.6327775258 
0.6136343164 
0.5868120358 
0.5408496154 
0.4256646017 
0.7930748026 
0.7878138738 
0.7810373562 
0.7729125242 
0.7637180916 
0.753770546 
0.7433777219 
0.7328091527 
0.7222697029 
0.7118768143 
0.7016543415 
0.6915352262 
0.6813592788 
0.6708562929 
0.6596103219 
0.6470019982 
0.6320931026 
0.6132176641 
0.5865758616 
0.5407157744 
0.4255748435 
0.7861067057 
0.7810373562 
0.7744513788 
0.7665766382 
0.757658312 
0.747970481 
0.7378053081 
0.7274534362 
0.7171652045 
0.7070983747 
0.6973045944 
0.6877325002 
0.6782201732 
0.6684649728 
0.6579734923 
0.6460115079 
0.6315796987 
0.613007733 
0.5865243468 
0.5407235956 
0.4256251967 
0.7777165198 
0.7729125242 
0.7665766382 
0.758960205 
0.750285251 
0.7407928385 
0.730768584 
0.7205517685 
0.7104863101 
0.7007854004 
0.6915300483 
0.6826895695 
0.6741077257 
0.6654424886 
0.656069576 
0.645005164 
0.6311633583 
0.6129014553 
0.5865223559 
0.5407041046 
0.4255711308 
0.7682303942 
0.7637180916 
0.757658312 
0.750285251 
0.7417832104 
0.7323453197 
0.7222408408 
0.7119044572 
0.7019191894 
0.6925455561 
0.6838709307 
0.675893883 
0.6685011805 
0.6613462243 
0.6536296918 
0.6437919007 
0.6306561172 
0.612687441 
0.5863375553 
0.540405289 
0.425085393 
0.7580146118 
0.753770546 
0.747970481 
0.7407928385 
0.7323453197 
0.7227057775 
0.7120193643 
0.7008240139 
0.6905777503 
0.6813696526 
0.6731875867 
0.6660705144 
0.6600515372 
0.6549415732 
0.6498458993 
0.6418046014 
0.6295917279 
0.6119521023 
0.5856044304 
0.5394968107 
0.4237895043 
0.7473915426 
0.7433777219 
0.7378053081 
0.730768584 
0.7222408408 
0.7120193643 
0.6995860845 
0.6843204799 
0.6731866577 
0.663791126 
0.6557381492 
0.6491034267 
0.6442705101 
0.6417923832 
0.6415270831 
0.6371419846 
0.6267964503 
0.6099359909 
0.5838212943 
0.5376247659 
0.4213347226 
0.7366184833 
0.7328091527 
0.7274534362 
0.7205517685 
0.7119044572 
0.7008240139 
0.6843204799 
0.2200017358 
0.2132417565 
0.2146628424 
0.2156595505 
0.2168090086 
0.218887017 
0.223924792 
0.6356339233 
0.6317086588 
0.6222012298 
0.6062320346 
0.5806710442 
0.5345929792 
0.4175412543 
0.7258746928 
0.7222697029 
0.7171652045 
0.7104863101 
0.7019191894 
0.6905777503 
0.6731866577 
0.2132417565 
0.2000075507 
0.2000052231 
0.200006421 
0.2000078122 
0.2000102137 
0.2000155575 
0.628917976 
0.6255400411 
0.6165505141 
0.6013224257 
0.5763866659 
0.5305436457 
0.4124868172 
0.71525188 
0.7118768143 
0.7070983747 
0.7007854004 
0.6925455561 
0.6813696526 
0.663791126 
0.2146628424 
0.2000052231 
0.2 
0.2 
0.2 
0.2 
0.2 
0.6215035582 
0.6186697935 
0.610142693 
0.5955896761 
0.5712984142 
0.5257572179 
0.4063373922 
0.7047537045 
0.7016543415 
0.6973045944 
0.6915300483 
0.6838709307 
0.6731875867 
0.6557381492 
0.2156595505 
0.200006421 
0.2 
0.2 
0.2 
0.2 
0.2 
0.6133587505 
0.6110316012 
0.6030633632 
0.5892490937 
0.5656796916 
0.5205238793 
0.3992506798 
0.6943001166 
0.6915352262 
0.6877325002 
0.6826895695 
0.675893883 
0.6660705144 
0.6491034267 
0.2168090086 
0.2000078122 
0.2 
0.2 
0.2 
0.2 
0.2 
0.6042020936 
0.602390775 
0.5952427038 
0.5823933032 
0.5597489418 
0.5151495036 
0.3915524339 
0.6837280343 
0.6813592788 
0.6782201732 
0.6741077257 
0.6685011805 
0.6600515372 
0.6442705101 
0.218887017 
0.2000102137 
0.2 
0.2 
0.2 
0.2 
0.2 
0.5932953762 
0.5922123195 
0.5864089408 
0.5749934063 
0.5536900069 
0.5100213384 
0.3840276483 
0.6727801764 
0.6708562929 
0.6684649728 
0.6654424886 
0.6613462243 
0.6549415732 
0.6417923832 
0.223924792 
0.2000155575 
0.2 
0.2 
0.2 
0.2 
0.2 
0.5785958656 
0.5791504615 
0.5757808227 
0.5667291268 
0.5475647417 
0.505582105 
0.378070774 
0.6610744081 
0.6596103219 
0.6579734923 
0.656069576 
0.6536296918 
0.6498458993 
0.6415270831 
0.6356339233 
0.628917976 
0.6215035582 
0.6133587505 
0.6042020936 
0.5932953762 
0.5785958656 
0.5668961189 
0.5643829543 
0.5628281721 
0.5569354004 
0.5411068082 
0.5021622342 
0.3756073176 
0.648040786 
0.6470019982 
0.6460115079 
0.645005164 
0.6437919007 
0.6418046014 
0.6371419846 
0.6317086588 
0.6255400411 
0.6186697935 
0.6110316012 
0.602390775 
0.5922123195 
0.5791504615 
0.5643829543 
0.5551747455 
0.5508541005 
0.5462397185 
0.5340767759 
0.4998643075 
0.3786331625 
0.6327775258 
0.6320931026 
0.6315796987 
0.6311633583 
0.6306561172 
0.6295917279 
0.6267964503 
0.6222012298 
0.6165505141 
0.610142693 
0.6030633632 
0.5952427038 
0.5864089408 
0.5757808227 
0.5628281721 
0.5508541005 
0.5426226184 
0.5367003155 
0.5270070428 
0.4987259474 
0.3885014206 
0.6136343164 
0.6132176641 
0.613007733 
0.6129014553 
0.612687441 
0.6119521023 
0.6099359909 
0.6062320346 
0.6013224257 
0.5955896761 
0.5892490937 
0.5823933032 
0.5749934063 
0.5667291268 
0.5569354004 
0.5462397185 
0.5367003155 
0.5292438602 
0.5207721619 
0.4987873634 
0.4054118463 
0.5868120358 
0.5865758616 
0.5865243468 
0.5865223559 
0.5863375553 
0.5856044304 
0.5838212943 
0.5806710442 
0.5763866659 
0.5712984142 
0.5656796916 
0.5597489418 
0.5536900069 
0.5475647417 
0.5411068082 
0.5340767759 
0.5270070428 
0.5207721619 
0.5143652409 
0.4992196025 
0.4278704563 
0.5408496154 
0.5407157744 
0.5407235956 
0.5407041046 
0.540405289 
0.5394968107 
0.5376247659 
0.5345929792 
0.5305436457 
0.5257572179 
0.5205238793 
0.5151495036 
0.5100213384 
0.505582105 
0.5021622342 
0.4998643075 
0.4987259474 
0.4987873634 
0.4992196025 
0.4944139272 
0.4503207151 
0.4256646017 
0.4255748435 
0.4256251967 
0.4255711308 
0.425085393 
0.4237895043 
0.4213347226 
0.4175412543 
0.4124868172 
0.4063373922 
0.3992506798 
0.3915524339 
0.3840276483 
0.378070774 
0.3756073176 
0.3786331625 
0.3885014206 
0.4054118463 
0.4278704563 
0.4503207151 
0.4480625338 
SCALARS permeabilityx double 1
LOOKUP_TABLE default
1 
1 
1 
1 
1 
1 
1 
1 
1 
1 
1 
1 
1 
1 
1 
1 
1 
1 
1 
1 
1 
1 
1 
1 
1 
1 
1 
1 
1 
1 
1 
1 
1 
1 
1 
1 
1 
1 
1 
1 
1 
1 
1 
1 
1 
1 
1 
1 
1 
1 
1 
1 
1 
1 
1 
1 
1 
1 
1 
1 
1 
1 
1 
1 
1 
1 
1 
1 
1 
1 
1 
1 
1 
1 
1 
1 
1 
1 
1 
1 
1 
1 
1 
1 
1 
1 
1 
1 
1 
1 
1 
1 
1 
1 
1 
1 
1 
1 
1 
1 
1 
1 
1 
1 
1 
1 
1 
1 
1 
1 
1 
1 
1 
1 
1 
1 
1 
1 
1 
1 
1 
1 
1 
1 
1 
1 
1 
1 
1 
1 
1 
1 
1 
1 
1 
1 
1 
1 
1 
1 
1 
1 
1 
1 
1 
1 
1 
1 
1 
1 
1 
1 
1 
1 
0.001 
0.001 
0.001 
0.001 
0.001 
0.001 
0.001 
1 
1 
1 
1 
1 
1 
1 
1 
1 
1 
1 
1 
1 
1 
0.001 
0.001 
0.001 
0.001 
0.001 
0.001 
0.001 
1 
1 
1 
1 
1 
1 
1 
1 
1 
1 
1 
1 
1 
1 
0.001 
0.001 
0.001 
0.001 
0.001 
0.001 
0.001 
1 
1 
1 
1 
1 
1 
1 
1 
1 
1 
1 
1 
1 
1 
0.001 
0.001 
0.001 
0.001 
0.001 
0.001 
0.001 
1 
1 
1 
1 
1 
1 
1 
1 
1 
1 
1 
1 
1 
1 
0.001 
0.001 
0.001 
0.001 
0.001 
0.001 
0.001 
1 
1 
1 
1 
1 
1 
1 
1 
1 
1 
1 
1 
1 
1 
0.001 
0.001 
0.001 
0.001 
0.001 
0.001 
0.001 
1 
1 
1 
1 
1 
1 
1 
1 
1 
1 
1 
1 
1 
1 
0.001 
0.001 
0.001 
0.001 
0.001 
0.001 
0.001 
1 
1 
1 
1 
1 
1 
1 
1 
1 
1 
1 
1 
1 
1 
1 
1 
1 
1 
1 
1 
1 
1 
1 
1 
1 
1 
1 
1 
1 
1 
1 
1 
1 
1 
1 
1 
1 
1 
1 
1 
1 
1 
1 
1 
1 
1 
1 
1 
1 
1 
1 
1 
1 
1 
1 
1 
1 
1 
1 
1 
1 
1 
1 
1 
1 
1 
1 
1 
1 
1 
1 
1 
1 
1 
1 
1 
1 
1 
1 
1 
1 
1 
1 
1 
1 
1 
1 
1 
1 
1 
1 
1 
1 
1 
1 
1 
1 
1 
1 
1 
1 
1 
1 
1 
1 
1 
1 
1 
1 
1 
1 
1 
1 
1 
1 
1 
1 
1 
1 
1 
1 
1 
1 
1 
1 
1 
1 
1 
1 
1 
1 
1 
1 
1 
1 
1 
1 
1 
1 
1 
1 
1 
1 
1 
1 
1 
1 
1 
1 
1 
1 
1 
1 
1 
