# vtk DataFile Version 3.0
MOAB 5.4.1
ASCII
DATASET UNSTRUCTURED_GRID
POINTS 968 double
0 0 0
1 0 0
2 0 0
3 0 0
4 0 0
5 0 0
6 0 0
7 0 0
8 0 0
9 0 0
10 0 0
11 0 0
12 0 0
13 0 0
14 0 0
15 0 0
16 0 0
17 0 0
18 0 0
19 0 0
20 0 0
21 0 0
0 1 0
1 1 0
2 1 0
3 1 0
4 1 0
5 1 0
6 1 0
7 1 0
8 1 0
9 1 0
10 1 0
11 1 0
12 1 0
13 1 0
14 1 0
15 1 0
16 1 0
17 1 0
18 1 0
19 1 0
20 1 0
21 1 0
0 2 0
1 2 0
2 2 0
3 2 0
4 2 0
5 2 0
6 2 0
7 2 0
8 2 0
9 2 0
10 2 0
11 2 0
12 2 0
13 2 0
14 2 0
15 2 0
16 2 0
17 2 0
18 2 0
19 2 0
20 2 0
21 2 0
0 3 0
1 3 0
2 3 0
3 3 0
4 3 0
5 3 0
6 3 0
7 3 0
8 3 0
9 3 0
10 3 0
11 3 0
12 3 0
13 3 0
14 3 0
15 3 0
16 3 0
17 3 0
18 3 0
19 3 0
20 3 0
21 3 0
0 4 0
1 4 0
2 4 0
3 4 0
4 4 0
5 4 0
6 4 0
7 4 0
8 4 0
9 4 0
10 4 0
11 4 0
12 4 0
13 4 0
14 4 0
15 4 0
16 4 0
17 4 0
18 4 0
19 4 0
20 4 0
21 4 0
0 5 0
1 5 0
2 5 0
3 5 0
4 5 0
5 5 0
6 5 0
7 5 0
8 5 0
9 5 0
10 5 0
11 5 0
12 5 0
13 5 0
14 5 0
15 5 0
16 5 0
17 5 0
18 5 0
19 5 0
20 5 0
21 5 0
0 6 0
1 6 0
2 6 0
3 6 0
4 6 0
5 6 0
6 6 0
7 6 0
8 6 0
9 6 0
10 6 0
11 6 0
12 6 0
13 6 0
14 6 0
15 6 0
16 6 0
17 6 0
18 6 0
19 6 0
20 6 0
21 6 0
0 7 0
1 7 0
2 7 0
3 7 0
4 7 0
5 7 0
6 7 0
7 7 0
8 7 0
9 7 0
10 7 0
11 7 0
12 7 0
13 7 0
14 7 0
15 7 0
16 7 0
17 7 0
18 7 0
19 7 0
20 7 0
21 7 0
0 8 0
1 8 0
2 8 0
3 8 0
4 8 0
5 8 0
6 8 0
7 8 0
8 8 0
9 8 0
10 8 0
11 8 0
12 8 0
13 8 0
14 8 0
15 8 0
16 8 0
17 8 0
18 8 0
19 8 0
20 8 0
21 8 0
0 9 0
1 9 0
2 9 0
3 9 0
4 9 0
5 9 0
6 9 0
7 9 0
8 9 0
9 9 0
10 9 0
11 9 0
12 9 0
13 9 0
14 9 0
15 9 0
16 9 0
17 9 0
18 9 0
19 9 0
20 9 0
21 9 0
0 10 0
1 10 0
2 10 0
3 10 0
4 10 0
5 10 0
6 10 0
7 10 0
8 10 0
9 10 0
10 10 0
11 10 0
12 10 0
13 10 0
14 10 0
15 10 0
16 10 0
17 10 0
18 10 0
19 10 0
20 10 0
21 10 0
0 11 0
1 11 0
2 11 0
3 11 0
4 11 0
5 11 0
6 11 0
7 11 0
8 11 0
9 11 0
10 11 0
11 11 0
12 11 0
13 11 0
14 11 0
15 11 0
16 11 0
17 11 0
18 11 0
19 11 0
20 11 0
21 11 0
0 12 0
1 12 0
2 12 0
3 12 0
4 12 0
5 12 0
6 12 0
7 12 0
8 12 0
9 12 0
10 12 0
11 12 0
12 12 0
13 12 0
14 12 0
15 12 0
16 12 0
17 12 0
18 12 0
19 12 0
20 12 0
21 12 0
0 13 0
1 13 0
2 13 0
3 13 0
4 13 0
5 13 0
6 13 0
7 13 0
8 13 0
9 13 0
10 13 0
11 13 0
12 13 0
13 13 0
14 13 0
15 13 0
16 13 0
17 13 0
18 13 0
19 13 0
20 13 0
21 13 0
0 14 0
1 14 0
2 14 0
3 14 0
4 14 0
5 14 0
6 14 0
7 14 0
8 14 0
9 14 0
10 14 0
11 14 0
12 14 0
13 14 0
14 14 0
15 14 0
16 14 0
17 14 0
18 14 0
19 14 0
20 14 0
21 14 0
0 15 0
1 15 0
2 15 0
3 15 0
4 15 0
5 15 0
6 15 0
7 15 0
8 15 0
9 15 0
10 15 0
11 15 0
12 15 0
13 15 0
14 15 0
15 15 0
16 15 0
17 15 0
18 15 0
19 15 0
20 15 0
21 15 0
0 16 0
1 16 0
2 16 0
3 16 0
4 16 0
5 16 0
6 16 0
7 16 0
8 16 0
9 16 0
10 16 0
11 16 0
12 16 0
13 16 0
14 16 0
15 16 0
16 16 0
17 16 0
18 16 0
19 16 0
20 16 0
21 16 0
0 17 0
1 17 0
2 17 0
3 17 0
4 17 0
5 17 0
6 17 0
7 17 0
8 17 0
9 17 0
10 17 0
11 17 0
12 17 0
13 17 0
14 17 0
15 17 0
16 17 0
17 17 0
18 17 0
19 17 0
20 17 0
21 17 0
0 18 0
1 18 0
2 18 0
3 18 0
4 18 0
5 18 0
6 18 0
7 18 0
8 18 0
9 18 0
10 18 0
11 18 0
12 18 0
13 18 0
14 18 0
15 18 0
16 18 0
17 18 0
18 18 0
19 18 0
20 18 0
21 18 0
0 19 0
1 19 0
2 19 0
3 19 0
4 19 0
5 19 0
6 19 0
7 19 0
8 19 0
9 19 0
10 19 0
11 19 0
12 19 0
13 19 0
14 19 0
15 19 0
16 19 0
17 19 0
18 19 0
19 19 0
20 19 0
21 19 0
0 20 0
1 20 0
2 20 0
3 20 0
4 20 0
5 20 0
6 20 0
7 20 0
8 20 0
9 20 0
10 20 0
11 20 0
12 20 0
13 20 0
14 20 0
15 20 0
16 20 0
17 20 0
18 20 0
19 20 0
20 20 0
21 20 0
0 21 0
1 21 0
2 21 0
3 21 0
4 21 0
5 21 0
6 21 0
7 21 0
8 21 0
9 21 0
10 21 0
11 21 0
12 21 0
13 21 0
14 21 0
15 21 0
16 21 0
17 21 0
18 21 0
19 21 0
20 21 0
21 21 0
0 0 1
1 0 1
2 0 1
3 0 1
4 0 1
5 0 1
6 0 1
7 0 1
8 0 1
9 0 1
10 0 1
11 0 1
12 0 1
13 0 1
14 0 1
15 0 1
16 0 1
17 0 1
18 0 1
19 0 1
20 0 1
21 0 1
0 1 1
1 1 1
2 1 1
3 1 1
4 1 1
5 1 1
6 1 1
7 1 1
8 1 1
9 1 1
10 1 1
11 1 1
12 1 1
13 1 1
14 1 1
15 1 1
16 1 1
17 1 1
18 1 1
19 1 1
20 1 1
21 1 1
0 2 1
1 2 1
2 2 1
3 2 1
4 2 1
5 2 1
6 2 1
7 2 1
8 2 1
9 2 1
10 2 1
11 2 1
12 2 1
13 2 1
14 2 1
15 2 1
16 2 1
17 2 1
18 2 1
19 2 1
20 2 1
21 2 1
0 3 1
1 3 1
2 3 1
3 3 1
4 3 1
5 3 1
6 3 1
7 3 1
8 3 1
9 3 1
10 3 1
11 3 1
12 3 1
13 3 1
14 3 1
15 3 1
16 3 1
17 3 1
18 3 1
19 3 1
20 3 1
21 3 1
0 4 1
1 4 1
2 4 1
3 4 1
4 4 1
5 4 1
6 4 1
7 4 1
8 4 1
9 4 1
10 4 1
11 4 1
12 4 1
13 4 1
14 4 1
15 4 1
16 4 1
17 4 1
18 4 1
19 4 1
20 4 1
21 4 1
0 5 1
1 5 1
2 5 1
3 5 1
4 5 1
5 5 1
6 5 1
7 5 1
8 5 1
9 5 1
10 5 1
11 5 1
12 5 1
13 5 1
14 5 1
15 5 1
16 5 1
17 5 1
18 5 1
19 5 1
20 5 1
21 5 1
0 6 1
1 6 1
2 6 1
3 6 1
4 6 1
5 6 1
6 6 1
7 6 1
8 6 1
9 6 1
10 6 1
11 6 1
12 6 1
13 6 1
14 6 1
15 6 1
16 6 1
17 6 1
18 6 1
19 6 1
20 6 1
21 6 1
0 7 1
1 7 1
2 7 1
3 7 1
4 7 1
5 7 1
6 7 1
7 7 1
8 7 1
9 7 1
10 7 1
11 7 1
12 7 1
13 7 1
14 7 1
15 7 1
16 7 1
17 7 1
18 7 1
19 7 1
20 7 1
21 7 1
0 8 1
1 8 1
2 8 1
3 8 1
4 8 1
5 8 1
6 8 1
7 8 1
8 8 1
9 8 1
10 8 1
11 8 1
12 8 1
13 8 1
14 8 1
15 8 1
16 8 1
17 8 1
18 8 1
19 8 1
20 8 1
21 8 1
0 9 1
1 9 1
2 9 1
3 9 1
4 9 1
5 9 1
6 9 1
7 9 1
8 9 1
9 9 1
10 9 1
11 9 1
12 9 1
13 9 1
14 9 1
15 9 1
16 9 1
17 9 1
18 9 1
19 9 1
20 9 1
21 9 1
0 10 1
1 10 1
2 10 1
3 10 1
4 10 1
5 10 1
6 10 1
7 10 1
8 10 1
9 10 1
10 10 1
11 10 1
12 10 1
13 10 1
14 10 1
15 10 1
16 10 1
17 10 1
18 10 1
19 10 1
20 10 1
21 10 1
0 11 1
1 11 1
2 11 1
3 11 1
4 11 1
5 11 1
6 11 1
7 11 1
8 11 1
9 11 1
10 11 1
11 11 1
12 11 1
13 11 1
14 11 1
15 11 1
16 11 1
17 11 1
18 11 1
19 11 1
20 11 1
21 11 1
0 12 1
1 12 1
2 12 1
3 12 1
4 12 1
5 12 1
6 12 1
7 12 1
8 12 1
9 12 1
10 12 1
11 12 1
12 12 1
13 12 1
14 12 1
15 12 1
16 12 1
17 12 1
18 12 1
19 12 1
20 12 1
21 12 1
0 13 1
1 13 1
2 13 1
3 13 1
4 13 1
5 13 1
6 13 1
7 13 1
8 13 1
9 13 1
10 13 1
11 13 1
12 13 1
13 13 1
14 13 1
15 13 1
16 13 1
17 13 1
18 13 1
19 13 1
20 13 1
21 13 1
0 14 1
1 14 1
2 14 1
3 14 1
4 14 1
5 14 1
6 14 1
7 14 1
8 14 1
9 14 1
10 14 1
11 14 1
12 14 1
13 14 1
14 14 1
15 14 1
16 14 1
17 14 1
18 14 1
19 14 1
20 14 1
21 14 1
0 15 1
1 15 1
2 15 1
3 15 1
4 15 1
5 15 1
6 15 1
7 15 1
8 15 1
9 15 1
10 15 1
11 15 1
12 15 1
13 15 1
14 15 1
15 15 1
16 15 1
17 15 1
18 15 1
19 15 1
20 15 1
21 15 1
0 16 1
1 16 1
2 16 1
3 16 1
4 16 1
5 16 1
6 16 1
7 16 1
8 16 1
9 16 1
10 16 1
11 16 1
12 16 1
13 16 1
14 16 1
15 16 1
16 16 1
17 16 1
18 16 1
19 16 1
20 16 1
21 16 1
0 17 1
1 17 1
2 17 1
3 17 1
4 17 1
5 17 1
6 17 1
7 17 1
8 17 1
9 17 1
10 17 1
11 17 1
12 17 1
13 17 1
14 17 1
15 17 1
16 17 1
17 17 1
18 17 1
19 17 1
20 17 1
21 17 1
0 18 1
1 18 1
2 18 1
3 18 1
4 18 1
5 18 1
6 18 1
7 18 1
8 18 1
9 18 1
10 18 1
11 18 1
12 18 1
13 18 1
14 18 1
15 18 1
16 18 1
17 18 1
18 18 1
19 18 1
20 18 1
21 18 1
0 19 1
1 19 1
2 19 1
3 19 1
4 19 1
5 19 1
6 19 1
7 19 1
8 19 1
9 19 1
10 19 1
11 19 1
12 19 1
13 19 1
14 19 1
15 19 1
16 19 1
17 19 1
18 19 1
19 19 1
20 19 1
21 19 1
0 20 1
1 20 1
2 20 1
3 20 1
4 20 1
5 20 1
6 20 1
7 20 1
8 20 1
9 20 1
10 20 1
11 20 1
12 20 1
13 20 1
14 20 1
15 20 1
16 20 1
17 20 1
18 20 1
19 20 1
20 20 1
21 20 1
0 21 1
1 21 1
2 21 1
3 21 1
4 21 1
5 21 1
6 21 1
7 21 1
8 21 1
9 21 1
10 21 1
11 21 1
12 21 1
13 21 1
14 21 1
15 21 1
16 21 1
17 21 1
18 21 1
19 21 1
20 21 1
21 21 1
CELLS 441 3969
8 0 1 23 22 484 485 507 506
8 22 23 45 44 506 507 529 528
8 44 45 67 66 528 529 551 550
8 66 67 89 88 550 551 573 572
8 88 89 111 110 572 573 595 594
8 110 111 133 132 594 595 617 616
8 132 133 155 154 616 617 639 638
8 154 155 177 176 638 639 661 660
8 176 177 199 198 660 661 683 682
8 198 199 221 220 682 683 705 704
8 220 221 243 242 704 705 727 726
8 242 243 265 264 726 727 749 748
8 264 265 287 286 748 749 771 770
8 286 287 309 308 770 771 793 792
8 308 309 331 330 792 793 815 814
8 330 331 353 352 814 815 837 836
8 352 353 375 374 836 837 859 858
8 374 375 397 396 858 859 881 880
8 396 397 419 418 880 881 903 902
8 418 419 441 440 902 903 925 924
8 440 441 463 462 924 925 947 946
8 1 2 24 23 485 486 508 507
8 23 24 46 45 507 508 530 529
8 45 46 68 67 529 530 552 551
8 67 68 90 89 551 552 574 573
8 89 90 112 111 573 574 596 595
8 111 112 134 133 595 596 618 617
8 133 134 156 155 617 618 640 639
8 155 156 178 177 639 640 662 661
8 177 178 200 199 661 662 684 683
8 199 200 222 221 683 684 706 705
8 221 222 244 243 705 706 728 727
8 243 244 266 265 727 728 750 749
8 265 266 288 287 749 750 772 771
8 287 288 310 309 771 772 794 793
8 309 310 332 331 793 794 816 815
8 331 332 354 353 815 816 838 837
8 353 354 376 375 837 838 860 859
8 375 376 398 397 859 860 882 881
8 397 398 420 419 881 882 904 903
8 419 420 442 441 903 904 926 925
8 441 442 464 463 925 926 948 947
8 2 3 25 24 486 487 509 508
8 24 25 47 46 508 509 531 530
8 46 47 69 68 530 531 553 552
8 68 69 91 90 552 553 575 574
8 90 91 113 112 574 575 597 596
8 112 113 135 134 596 597 619 618
8 134 135 157 156 618 619 641 640
8 156 157 179 178 640 641 663 662
8 178 179 201 200 662 663 685 684
8 200 201 223 222 684 685 707 706
8 222 223 245 244 706 707 729 728
8 244 245 267 266 728 729 751 750
8 266 267 289 288 750 751 773 772
8 288 289 311 310 772 773 795 794
8 310 311 333 332 794 795 817 816
8 332 333 355 354 816 817 839 838
8 354 355 377 376 838 839 861 860
8 376 377 399 398 860 861 883 882
8 398 399 421 420 882 883 905 904
8 420 421 443 442 904 905 927 926
8 442 443 465 464 926 927 949 948
8 3 4 26 25 487 488 510 509
8 25 26 48 47 509 510 532 531
8 47 48 70 69 531 532 554 553
8 69 70 92 91 553 554 576 575
8 91 92 114 113 575 576 598 597
8 113 114 136 135 597 598 620 619
8 135 136 158 157 619 620 642 641
8 157 158 180 179 641 642 664 663
8 179 180 202 201 663 664 686 685
8 201 202 224 223 685 686 708 707
8 223 224 246 245 707 708 730 729
8 245 246 268 267 729 730 752 751
8 267 268 290 289 751 752 774 773
8 289 290 312 311 773 774 796 795
8 311 312 334 333 795 796 818 817
8 333 334 356 355 817 818 840 839
8 355 356 378 377 839 840 862 861
8 377 378 400 399 861 862 884 883
8 399 400 422 421 883 884 906 905
8 421 422 444 443 905 906 928 927
8 443 444 466 465 927 928 950 949
8 4 5 27 26 488 489 511 510
8 26 27 49 48 510 511 533 532
8 48 49 71 70 532 533 555 554
8 70 71 93 92 554 555 577 576
8 92 93 115 114 576 577 599 598
8 114 115 137 136 598 599 621 620
8 136 137 159 158 620 621 643 642
8 158 159 181 180 642 643 665 664
[...]
POINT_DATA 968
SCALARS GLOBAL_ID int 1
LOOKUP_TABLE default
-1 
-1 
-1 
-1 
-1 
-1 
-1 
-1 
-1 
-1 
-1 
-1 
-1 
-1 
-1 
-1 
-1 
-1 
-1 
-1 
-1 
-1 
-1 
-1 
-1 
-1 
-1 
-1 
-1 
-1 
-1 
-1 
-1 
-1 
-1 
-1 
-1 
-1 
-1 
-1 
-1 
-1 
-1 
-1 
-1 
-1 
-1 
-1 
-1 
-1 
-1 
-1 
-1 
-1 
-1 
-1 
-1 
-1 
-1 
-1 
-1 
-1 
-1 
-1 
-1 
-1 
-1 
-1 
-1 
-1 
-1 
-1 
-1 
-1 
-1 
-1 
-1 
-1 
-1 
-1 
-1 
-1 
-1 
-1 
-1 
-1 
-1 
-1 
-1 
-1 
-1 
-1 
-1 
-1 
-1 
-1 
-1 
-1 
-1 
-1 
-1 
-1 
-1 
-1 
-1 
-1 
-1 
-1 
-1 
-1 
-1 
-1 
-1 
-1 
-1 
-1 
-1 
-1 
-1 
-1 
-1 
-1 
-1 
-1 
-1 
-1 
-1 
-1 
-1 
-1 
-1 
-1 
-1 
-1 
-1 
-1 
-1 
-1 
-1 
-1 
-1 
-1 
-1 
-1 
-1 
-1 
-1 
-1 
-1 
-1 
-1 
-1 
-1 
-1 
-1 
-1 
-1 
-1 
-1 
-1 
-1 
-1 
-1 
-1 
-1 
-1 
-1 
-1 
-1 
-1 
-1 
-1 
-1 
-1 
-1 
-1 
-1 
-1 
-1 
-1 
-1 
-1 
-1 
-1 
-1 
-1 
-1 
-1 
-1 
-1 
-1 
-1 
-1 
-1 
-1 
-1 
-1 
-1 
-1 
-1 
-1 
-1 
-1 
-1 
-1 
-1 
-1 
-1 
-1 
-1 
-1 
-1 
-1 
-1 
-1 
-1 
-1 
-1 
-1 
-1 
-1 
-1 
-1 
-1 
-1 
-1 
-1 
-1 
-1 
-1 
-1 
-1 
-1 
-1 
-1 
-1 
-1 
-1 
-1 
-1 
-1 
-1 
-1 
-1 
-1 
-1 
-1 
-1 
-1 
-1 
-1 
-1 
-1 
-1 
-1 
-1 
-1 
-1 
-1 
-1 
-1 
-1 
-1 
-1 
-1 
-1 
-1 
-1 
-1 
-1 
-1 
-1 
-1 
-1 
-1 
-1 
-1 
-1 
-1 
-1 
-1 
-1 
-1 
-1 
-1 
-1 
-1 
-1 
-1 
-1 
-1 
-1 
-1 
-1 
-1 
-1 
-1 
-1 
-1 
-1 
-1 
-1 
-1 
-1 
-1 
-1 
-1 
-1 
-1 
-1 
-1 
-1 
-1 
-1 
-1 
-1 
-1 
-1 
-1 
-1 
-1 
-1 
-1 
-1 
-1 
-1 
-1 
-1 
-1 
-1 
-1 
-1 
-1 
-1 
-1 
-1 
-1 
-1 
-1 
-1 
-1 
-1 
-1 
-1 
-1 
-1 
-1 
-1 
-1 
-1 
-1 
-1 
-1 
-1 
-1 
-1 
-1 
-1 
-1 
-1 
-1 
-1 
-1 
-1 
-1 
-1 
-1 
-1 
-1 
-1 
-1 
-1 
-1 
-1 
-1 
-1 
-1 
-1 
-1 
-1 
-1 
-1 
-1 
-1 
-1 
-1 
-1 
-1 
-1 
-1 
-1 
-1 
-1 
-1 
-1 
-1 
-1 
-1 
-1 
-1 
-1 
-1 
-1 
-1 
-1 
-1 
-1 
-1 
-1 
-1 
-1 
-1 
-1 
-1 
-1 
-1 
-1 
-1 
-1 
-1 
-1 
-1 
-1 
-1 
-1 
-1 
-1 
-1 
-1 
-1 
-1 
-1 
-1 
-1 
-1 
-1 
-1 
-1 
-1 
-1 
-1 
-1 
-1 
-1 
-1 
-1 
-1 
-1 
-1 
-1 
-1 
-1 
-1 
-1 
-1 
-1 
-1 
-1 
-1 
-1 
-1 
-1 
-1 
-1 
-1 
-1 
-1 
-1 
-1 
-1 
-1 
-1 
-1 
-1 
-1 
-1 
-1 
-1 
-1 
-1 
-1 
-1 
-1 
-1 
-1 
-1 
-1 
-1 
-1 
-1 
-1 
-1 
-1 
-1 
-1 
-1 
-1 
-1 
-1 
-1 
-1 
-1 
-1 
-1 
-1 
-1 
-1 
-1 
-1 
-1 
-1 
-1 
-1 
-1 
-1 
-1 
-1 
-1 
-1 
-1 
-1 
-1 
-1 
-1 
-1 
-1 
-1 
-1 
-1 
-1 
-1 
-1 
-1 
-1 
-1 
-1 
-1 
-1 
-1 
-1 
-1 
-1 
-1 
-1 
-1 
-1 
-1 
-1 
-1 
-1 
-1 
-1 
-1 
-1 
-1 
-1 
-1 
-1 
-1 
-1 
-1 
-1 
-1 
-1 
-1 
-1 
-1 
-1 
-1 
-1 
-1 
-1 
-1 
-1 
-1 
-1 
-1 
-1 
-1 
-1 
-1 
-1 
-1 
-1 
-1 
-1 
-1 
-1 
-1 
-1 
-1 
-1 
-1 
-1 
-1 
-1 
-1 
-1 
-1 
-1 
-1 
-1 
-1 
-1 
-1 
-1 
-1 
-1 
-1 
-1 
-1 
-1 
-1 
-1 
-1 
-1 
-1 
-1 
-1 
-1 
-1 
-1 
-1 
-1 
-1 
-1 
-1 
-1 
-1 
-1 
-1 
-1 
-1 
-1 
-1 
-1 
-1 
-1 
-1 
-1 
-1 
-1 
-1 
-1 
-1 
-1 
-1 
-1 
-1 
-1 
-1 
-1 
-1 
-1 
-1 
-1 
-1 
-1 
-1 
-1 
-1 
-1 
-1 
-1 
-1 
-1 
-1 
-1 
-1 
-1 
-1 
-1 
-1 
-1 
-1 
-1 
-1 
-1 
-1 
-1 
-1 
-1 
-1 
-1 
-1 
-1 
-1 
-1 
-1 
-1 
-1 
-1 
-1 
-1 
-1 
-1 
-1 
-1 
-1 
-1 
-1 
-1 
-1 
-1 
-1 
-1 
-1 
-1 
-1 
-1 
-1 
-1 
-1 
-1 
-1 
-1 
-1 
-1 
-1 
-1 
-1 
-1 
-1 
-1 
-1 
-1 
-1 
-1 
-1 
-1 
-1 
-1 
-1 
-1 
-1 
-1 
-1 
-1 
-1 
-1 
-1 
-1 
-1 
-1 
-1 
-1 
-1 
-1 
-1 
-1 
-1 
-1 
-1 
-1 
-1 
-1 
-1 
-1 
-1 
-1 
-1 
-1 
-1 
-1 
-1 
-1 
-1 
-1 
-1 
-1 
-1 
-1 
-1 
-1 
-1 
-1 
-1 
-1 
-1 
-1 
-1 
-1 
-1 
-1 
-1 
-1 
-1 
-1 
-1 
-1 
-1 
-1 
-1 
-1 
-1 
-1 
-1 
-1 
-1 
-1 
-1 
-1 
-1 
-1 
-1 
-1 
-1 
-1 
-1 
-1 
-1 
-1 
-1 
-1 
-1 
-1 
-1 
-1 
-1 
-1 
-1 
-1 
-1 
-1 
-1 
-1 
-1 
-1 
-1 
-1 
-1 
-1 
-1 
-1 
-1 
-1 
-1 
-1 
-1 
-1 
-1 
-1 
-1 
-1 
-1 
-1 
-1 
-1 
-1 
-1 
-1 
-1 
-1 
-1 
-1 
-1 
-1 
-1 
-1 
-1 
-1 
-1 
-1 
-1 
-1 
-1 
-1 
-1 
-1 
-1 
-1 
-1 
-1 
-1 
-1 
-1 
-1 
-1 
-1 
-1 
-1 
-1 
-1 
-1 
-1 
-1 
-1 
-1 
-1 
-1 
-1 
-1 
-1 
-1 
-1 
-1 
-1 
-1 
-1 
-1 
-1 
-1 
-1 
-1 
-1 
-1 
-1 
-1 
-1 
-1 
-1 
-1 
-1 
-1 
-1 
-1 
-1 
-1 
-1 
-1 
-1 
-1 
-1 
-1 
-1 
-1 
-1 
-1 
-1 
-1 
-1 
-1 
-1 
-1 
-1 
-1 
-1 
-1 
-1 
-1 
-1 
-1 
-1 
-1 
-1 
-1 
-1 
-1 
-1 
-1 
-1 
-1 
-1 
-1 
-1 
-1 
-1 
-1 
-1 
-1 
-1 
-1 
-1 
-1 
-1 
-1 
-1 
-1 
CELL_DATA 441
SCALARS GLOBAL_ID int 1
LOOKUP_TABLE default
-1 
-1 
-1 
-1 
-1 
-1 
-1 
-1 
-1 
-1 
-1 
-1 
-1 
-1 
-1 
-1 
-1 
-1 
-1 
-1 
-1 
-1 
-1 
-1 
-1 
-1 
-1 
-1 
-1 
-1 
-1 
-1 
-1 
-1 
-1 
-1 
-1 
-1 
-1 
-1 
-1 
-1 
-1 
-1 
-1 
-1 
-1 
-1 
-1 
-1 
-1 
-1 
-1 
-1 
-1 
-1 
-1 
-1 
-1 
-1 
-1 
-1 
-1 
-1 
-1 
-1 
-1 
-1 
-1 
-1 
-1 
-1 
-1 
-1 
-1 
-1 
-1 
-1 
-1 
-1 
-1 
-1 
-1 
-1 
-1 
-1 
-1 
-1 
-1 
-1 
-1 
-1 
-1 
-1 
-1 
-1 
-1 
-1 
-1 
-1 
-1 
-1 
-1 
-1 
-1 
-1 
-1 
-1 
-1 
-1 
-1 
-1 
-1 
-1 
-1 
-1 
-1 
-1 
-1 
-1 
-1 
-1 
-1 
-1 
-1 
-1 
-1 
-1 
-1 
-1 
-1 
-1 
-1 
-1 
-1 
-1 
-1 
-1 
-1 
-1 
-1 
-1 
-1 
-1 
-1 
-1 
-1 
-1 
-1 
-1 
-1 
-1 
-1 
-1 
-1 
-1 
-1 
-1 
-1 
-1 
-1 
-1 
-1 
-1 
-1 
-1 
-1 
-1 
-1 
-1 
-1 
-1 
-1 
-1 
-1 
-1 
-1 
-1 
-1 
-1 
-1 
-1 
-1 
-1 
-1 
-1 
-1 
-1 
-1 
-1 
-1 
-1 
-1 
-1 
-1 
-1 
-1 
-1 
-1 
-1 
-1 
-1 
-1 
-1 
-1 
-1 
-1 
-1 
-1 
-1 
-1 
-1 
-1 
-1 
-1 
-1 
-1 
-1 
-1 
-1 
-1 
-1 
-1 
-1 
-1 
-1 
-1 
-1 
-1 
-1 
-1 
-1 
-1 
-1 
-1 
-1 
-1 
-1 
-1 
-1 
-1 
-1 
-1 
-1 
-1 
-1 
-1 
-1 
-1 
-1 
-1 
-1 
-1 
-1 
-1 
-1 
-1 
-1 
-1 
-1 
-1 
-1 
-1 
-1 
-1 
-1 
-1 
-1 
-1 
-1 
-1 
-1 
-1 
-1 
-1 
-1 
-1 
-1 
-1 
-1 
-1 
-1 
-1 
-1 
-1 
-1 
-1 
-1 
-1 
-1 
-1 
-1 
-1 
-1 
-1 
-1 
-1 
-1 
-1 
-1 
-1 
-1 
-1 
-1 
-1 
-1 
-1 
-1 
-1 
-1 
-1 
-1 
-1 
-1 
-1 
-1 
-1 
-1 
-1 
-1 
-1 
-1 
-1 
-1 
-1 
-1 
-1 
-1 
-1 
-1 
-1 
-1 
-1 
-1 
-1 
-1 
-1 
-1 
-1 
-1 
-1 
-1 
-1 
-1 
-1 
-1 
-1 
-1 
-1 
-1 
-1 
-1 
-1 
-1 
-1 
-1 
-1 
-1 
-1 
-1 
-1 
-1 
-1 
-1 
-1 
-1 
-1 
-1 
-1 
-1 
-1 
-1 
-1 
-1 
-1 
-1 
-1 
-1 
-1 
-1 
-1 
-1 
-1 
-1 
-1 
-1 
-1 
-1 
-1 
-1 
-1 
-1 
-1 
-1 
-1 
-1 
-1 
-1 
-1 
-1 
-1 
-1 
-1 
-1 
-1 
-1 
-1 
-1 
-1 
-1 
-1 
-1 
-1 
-1 
-1 
-1 
-1 
-1 
-1 
-1 
-1 
-1 
-1 
-1 
-1 
-1 
-1 
-1 
-1 
-1 
-1 
-1 
-1 
-1 
-1 
-1 
-1 
-1 
-1 
-1 
-1 
SCALARS pressure double 1
LOOKUP_TABLE default
100 
92.13524587 
87.18377565 
83.60944415 
80.76260626 
78.33670602 
76.16591303 
74.15059668 
72.22787896 
70.35950238 
68.5262623 
66.72499818 
64.96642536 
63.27263031 
61.67294083 
60.19750882 
58.87048194 
57.70732478 
56.71891835 
55.9421975 
55.55386098 
92.13524587 
88.92597642 
85.62894055 
82.73250803 
80.21061043 
77.96382482 
75.90259478 
73.95762355 
72.07871799 
70.23353942 
68.4061592 
66.59574878 
64.81563311 
63.09206204 
61.46071308 
59.95853193 
58.61249445 
57.43712112 
56.4407871 
55.65962219 
55.27401534 
87.18377565 
85.62894055 
83.5210869 
81.34477599 
79.26018702 
77.29255078 
75.41854487 
73.60065083 
71.80285135 
70.00036668 
68.182031 
66.35040902 
64.52275353 
62.73299785 
61.03127798 
59.47255069 
58.08929506 
56.89214233 
55.88298168 
55.095305 
54.71556842 
83.60944415 
82.73250803 
81.34477599 
79.74009814 
78.07735488 
76.42046529 
74.77806851 
73.12878844 
71.44109685 
69.69546889 
67.88546776 
66.0161675 
64.10683424 
62.19957951 
60.37035131 
58.71939405 
57.28428867 
56.06227146 
55.04111482 
54.2491808 
53.88205278 
80.76260626 
80.21061043 
79.26018702 
78.07735488 
76.78030564 
75.43220038 
74.04842951 
72.60388487 
71.0493441 
69.36942039 
67.56398321 
65.63798617 
63.60411919 
61.5017022 
59.4420129 
57.65746738 
56.16873546 
54.93272592 
53.91019946 
53.12323812 
52.78167416 
78.33670602 
77.96382482 
77.29255078 
76.42046529 
75.43220038 
74.38292767 
73.28751361 
72.10071667 
70.69766301 
69.08548466 
67.28047507 
65.2848466 
63.08586687 
60.67479224 
58.14900112 
56.20558427 
54.70087444 
53.48847708 
52.48940426 
51.72702034 
51.43132529 
76.16591303 
75.90259478 
75.41854487 
74.77806851 
74.04842951 
73.28751361 
72.52937409 
71.72822773 
70.47219249 
68.91310845 
67.10686644 
65.05378055 
62.6967911 
59.87713339 
56.18480033 
54.22034266 
52.83907264 
51.7274586 
50.79074038 
50.08757227 
49.86069303 
74.15059668 
73.95762355 
73.60065083 
73.12878844 
72.60388487 
72.10071667 
71.72822773 
70.72825431 
68.90733479 
66.9513166 
64.7826649 
62.33202396 
59.42553239 
55.58049151 
52.40535645 
51.55849846 
50.60498879 
49.68815004 
48.85123268 
48.26234097 
48.11301835 
72.22787896 
72.07871799 
71.80285135 
71.44109685 
71.0493441 
70.69766301 
70.47219249 
68.90733479 
66.39760676 
63.94427338 
61.3834264 
58.60079526 
55.43467481 
51.65315592 
49.36666935 
48.90456988 
48.22769849 
47.47164183 
46.74042177 
46.33038948 
46.23766069 
70.35950238 
70.23353942 
70.00036668 
69.69546889 
69.36942039 
69.08548466 
68.91310845 
66.9513166 
63.94427338 
61.11403658 
58.28380627 
55.33854318 
52.15493292 
48.62317679 
46.68020658 
46.35867966 
45.81857593 
45.1604733 
44.55005137 
44.33751002 
44.27454217 
68.5262623 
68.4061592 
68.182031 
67.88546776 
67.56398321 
67.28047507 
67.10686644 
64.7826649 
61.3834264 
58.28380627 
55.29922613 
52.31464599 
49.22334541 
45.94351021 
44.19808861 
43.91751186 
43.42382814 
42.82782402 
42.39364958 
42.29801992 
42.24900064 
66.72499818 
66.59574878 
66.35040902 
66.0161675 
65.63798617 
65.2848466 
65.05378055 
62.33202396 
58.60079526 
55.33854318 
52.31464599 
49.39746925 
46.48029252 
43.47136426 
41.8760707 
41.58292171 
41.08887644 
40.57545947 
40.32287293 
40.23226112 
40.17447418 
64.96642536 
64.81563311 
64.52275353 
64.10683424 
63.60411919 
63.08586687 
62.6967911 
59.42553239 
55.43467481 
52.15493292 
49.22334541 
46.48029252 
43.82899114 
41.17768976 
39.7543427 
39.41500185 
38.91943838 
38.50406143 
38.29422368 
38.13648867 
38.04216231 
63.27263031 
63.09206204 
62.73299785 
62.19957951 
61.5017022 
60.67479224 
59.87713339 
55.58049151 
51.65315592 
48.62317679 
45.94351021 
43.47136426 
41.17768976 
39.07656417 
38.02495081 
37.58856017 
37.05489646 
36.60830186 
36.26264442 
35.97763646 
35.81552414 
61.67294083 
61.46071308 
61.03127798 
60.37035131 
59.4420129 
58.14900112 
56.18480033 
52.40535645 
49.36666935 
46.68020658 
44.19808861 
41.8760707 
39.7543427 
38.02495081 
37.04571898 
36.23935275 
35.47800179 
34.79057604 
34.17833118 
33.69590444 
33.42677365 
60.19750882 
59.95853193 
59.47255069 
58.71939405 
57.65746738 
56.20558427 
54.22034266 
51.55849846 
48.90456988 
46.35867966 
43.91751186 
41.58292171 
39.41500185 
37.58856017 
36.23935275 
35.09328281 
33.99017832 
32.92922866 
31.96448261 
31.20087651 
30.76889236 
58.87048194 
58.61249445 
58.08929506 
57.28428867 
56.16873546 
54.70087444 
52.83907264 
50.60498879 
48.22769849 
45.81857593 
43.42382814 
41.08887644 
38.91943838 
37.05489646 
35.47800179 
33.99017832 
32.48115498 
30.9723779 
29.54949429 
28.37422661 
27.67902693 
57.70732478 
57.43712112 
56.89214233 
56.06227146 
54.93272592 
53.48847708 
51.7274586 
49.68815004 
47.47164183 
45.1604733 
42.82782402 
40.57545947 
38.50406143 
36.60830186 
34.79057604 
32.92922866 
30.9723779 
28.92963397 
26.88689005 
25.06750871 
23.89396181 
56.71891835 
56.4407871 
55.88298168 
55.04111482 
53.91019946 
52.48940426 
50.79074038 
48.85123268 
46.74042177 
44.55005137 
42.39364958 
40.32287293 
38.29422368 
36.26264442 
34.17833118 
31.96448261 
29.54949429 
26.88689005 
24.00092321 
21.11495637 
18.93534979 
55.9421975 
55.65962219 
55.095305 
54.2491808 
53.12323812 
51.72702034 
50.08757227 
48.26234097 
46.33038948 
44.33751002 
42.29801992 
40.23226112 
38.13648867 
35.97763646 
33.69590444 
31.20087651 
28.37422661 
25.06750871 
21.11495637 
16.45604378 
11.79713119 
55.55386098 
55.27401534 
54.71556842 
53.88205278 
52.78167416 
51.43132529 
49.86069303 
48.11301835 
46.23766069 
44.27454217 
42.24900064 
40.17447418 
38.04216231 
35.81552414 
33.42677365 
30.76889236 
27.67902693 
23.89396181 
18.93534979 
11.79713119 
0 
SCALARS saturation double 1
LOOKUP_TABLE default
0.8 
0.7889495646 
0.7784583285 
0.766327062 
0.7530498822 
0.7391026 
0.724849564 
0.7105378479 
0.6963012146 
0.6821560976 
0.6680067157 
0.6536396712 
0.638707563 
0.6226767351 
0.6047047801 
0.5833933431 
0.5560944902 
0.516832245 
0.4494322717 
0.3228288372 
0.2107681512 
0.7889495646 
0.7809170983 
0.7709594324 
0.759409404 
0.7466929097 
0.7332252516 
0.7193600197 
0.7053687562 
0.6914229482 
0.6775749747 
0.6637562737 
0.6497711751 
0.6352791366 
0.619732994 
0.6022495577 
0.5813592415 
0.5543369074 
0.5150828951 
0.4471410708 
0.3196752032 
0.2100335112 
0.7784583285 
0.7709594324 
0.76151347 
0.7505194108 
0.7383452388 
0.725347452 
0.7118627381 
0.6981959008 
0.6845800654 
0.6711221382 
0.6577908694 
0.6444157407 
0.6306642717 
0.6159598175 
0.5993281584 
0.5791334148 
0.5525184135 
0.5132095794 
0.4443257747 
0.3152326101 
0.2089723954 
0.766327062 
0.759409404 
0.7505194108 
0.740063133 
0.7283638834 
0.7157282012 
0.7024850676 
0.6890044596 
0.6756440266 
0.6625854142 
0.6498388366 
0.6372714269 
0.6245764027 
0.6111503248 
0.5958619661 
0.5766947606 
0.5505862087 
0.5110425857 
0.4405693343 
0.3088055382 
0.2075245893 
0.7530498822 
0.7466929097 
0.7383452388 
0.7283638834 
0.7170059913 
0.704506362 
0.691167208 
0.677480959 
0.6641277917 
0.6513570697 
0.6391978129 
0.6275735801 
0.6162632182 
0.6047031905 
0.5915571936 
0.5738695252 
0.548307692 
0.5081433834 
0.434977131 
0.2990381859 
0.2056352163 
0.7391026 
0.7332252516 
0.725347452 
0.7157282012 
0.704506362 
0.6917483332 
0.6775697858 
0.6625823025 
0.6486655348 
0.6358646799 
0.6240992177 
0.6133688442 
0.6036933764 
0.5948131499 
0.5853566057 
0.5699148569 
0.5449091739 
0.5034512875 
0.4257429087 
0.2838157371 
0.2034326691 
0.724849564 
0.7193600197 
0.7118627381 
0.7024850676 
0.691167208 
0.6775697858 
0.6608428177 
0.6398290693 
0.6241907986 
0.6106377841 
0.5985816837 
0.5880954758 
0.5797509824 
0.5745128311 
0.5724465981 
0.5617144245 
0.5379307177 
0.4944322039 
0.4093013838 
0.2609964627 
0.2014244599 
0.7105378479 
0.7053687562 
0.6981959008 
0.6890044596 
0.677480959 
0.6625823025 
0.6398290693 
0.2114970652 
0.2068397827 
0.2070158335 
0.2069712006 
0.2069754598 
0.207307299 
0.2085936693 
0.5621977323 
0.5498718475 
0.5248778829 
0.4772749316 
0.3803078582 
0.2328138255 
0.2002961786 
0.6963012146 
0.6914229482 
0.6845800654 
0.6756440266 
0.6641277917 
0.6486655348 
0.6241907986 
0.2068397827 
0.2000012204 
0.2000006869 
0.200000699 
0.20000071 
0.2000007801 
0.200001018 
0.5477266744 
0.5335074146 
0.5051944413 
0.4492510318 
0.3353834945 
0.2107925227 
0.2000219022 
0.6821560976 
0.6775749747 
0.6711221382 
0.6625854142 
0.6513570697 
0.6358646799 
0.6106377841 
0.2070158335 
0.2000006869 
0.2 
0.2 
0.2 
0.2 
0.2 
0.5277962029 
0.5106996448 
0.4761343499 
0.4064094176 
0.2782572076 
0.2019374083 
0.2000005153 
0.6680067157 
0.6637562737 
0.6577908694 
0.6498388366 
0.6391978129 
0.6240992177 
0.5985816837 
0.2069712006 
0.200000699 
0.2 
0.2 
0.2 
0.2 
0.2 
0.4995379319 
0.4775716673 
0.4328557164 
0.3463116817 
0.2285392166 
0.2001891234 
0.2000000046 
0.6536396712 
0.6497711751 
0.6444157407 
0.6372714269 
0.6275735801 
0.6133688442 
0.5880954758 
0.2069754598 
0.20000071 
0.2 
0.2 
0.2 
0.2 
0.2 
0.4566190208 
0.4274477141 
0.3708634392 
0.2787924063 
0.2052425078 
0.2000079007 
0.2 
0.638707563 
0.6352791366 
0.6306642717 
0.6245764027 
0.6162632182 
0.6036933764 
0.5797509824 
0.207307299 
0.2000007801 
0.2 
0.2 
0.2 
0.2 
0.2 
0.3880909219 
0.3537787473 
0.295926254 
0.2271580917 
0.2005229246 
0.2000001234 
0.2 
0.6226767351 
0.619732994 
0.6159598175 
0.6111503248 
0.6047031905 
0.5948131499 
0.5745128311 
0.2085936693 
0.200001018 
0.2 
0.2 
0.2 
0.2 
0.2 
0.2894812883 
0.2670906325 
0.2326075883 
0.203940135 
0.2000157488 
0.2000000002 
0.2 
0.6047047801 
0.6022495577 
0.5993281584 
0.5958619661 
0.5915571936 
0.5853566057 
0.5724465981 
0.5621977323 
0.5477266744 
0.5277962029 
0.4995379319 
0.4566190208 
0.3880909219 
0.2894812883 
0.2254426636 
0.2122943907 
0.2037751967 
0.2000850109 
0.2000000113 
0.2 
0.2 
0.5833933431 
0.5813592415 
0.5791334148 
0.5766947606 
0.5738695252 
0.5699148569 
0.5617144245 
0.5498718475 
0.5335074146 
0.5106996448 
0.4775716673 
0.4274477141 
0.3537787473 
0.2670906325 
0.2122943907 
0.2007624265 
0.20004898 
0.2000000338 
0.2 
0.2 
0.2 
0.5560944902 
0.5543369074 
0.5525184135 
0.5505862087 
0.548307692 
0.5449091739 
0.5379307177 
0.5248778829 
0.5051944413 
0.4761343499 
0.4328557164 
0.3708634392 
0.295926254 
0.2326075883 
0.2037751967 
0.20004898 
0.2000000155 
0.2 
0.2 
0.2 
0.2 
0.516832245 
0.5150828951 
0.5132095794 
0.5110425857 
0.5081433834 
0.5034512875 
0.4944322039 
0.4772749316 
0.4492510318 
0.4064094176 
0.3463116817 
0.2787924063 
0.2271580917 
0.203940135 
0.2000850109 
0.2000000338 
0.2 
0.2 
0.2 
0.2 
0.2 
0.4494322717 
0.4471410708 
0.4443257747 
0.4405693343 
0.434977131 
0.4257429087 
0.4093013838 
0.3803078582 
0.3353834945 
0.2782572076 
0.2285392166 
0.2052425078 
0.2005229246 
0.2000157488 
0.2000000113 
0.2 
0.2 
0.2 
0.2 
0.2 
0.2 
0.3228288372 
0.3196752032 
0.3152326101 
0.3088055382 
0.2990381859 
0.2838157371 
0.2609964627 
0.2328138255 
0.2107925227 
0.2019374083 
0.2001891234 
0.2000079007 
0.2000001234 
0.2000000002 
0.2 
0.2 
0.2 
0.2 
0.2 
0.2 
0.2 
0.2107681512 
0.2100335112 
0.2089723954 
0.2075245893 
0.2056352163 
0.2034326691 
0.2014244599 
0.2002961786 
0.2000219022 
0.2000005153 
0.2000000046 
0.2 
0.2 
0.2 
0.2 
0.2 
0.2 
0.2 
0.2 
0.2 
0.2 
SCALARS permeabilityx double 1
LOOKUP_TABLE default
1 
1 
1 
1 
1 
1 
1 
1 
1 
1 
1 
1 
1 
1 
1 
1 
1 
1 
1 
1 
1 
1 
1 
1 
1 
1 
1 
1 
1 
1 
1 
1 
1 
1 
1 
1 
1 
1 
1 
1 
1 
1 
1 
1 
1 
1 
1 
1 
1 
1 
1 
1 
1 
1 
1 
1 
1 
1 
1 
1 
1 
1 
1 
1 
1 
1 
1 
1 
1 
1 
1 
1 
1 
1 
1 
1 
1 
1 
1 
1 
1 
1 
1 
1 
1 
1 
1 
1 
1 
1 
1 
1 
1 
1 
1 
1 
1 
1 
1 
1 
1 
1 
1 
1 
1 
1 
1 
1 
1 
1 
1 
1 
1 
1 
1 
1 
1 
1 
1 
1 
1 
1 
1 
1 
1 
1 
1 
1 
1 
1 
1 
1 
1 
1 
1 
1 
1 
1 
1 
1 
1 
1 
1 
1 
1 
1 
1 
1 
1 
1 
1 
1 
1 
1 
0.001 
0.001 
0.001 
0.001 
0.001 
0.001 
0.001 
1 
1 
1 
1 
1 
1 
1 
1 
1 
1 
1 
1 
1 
1 
0.001 
0.001 
0.001 
0.001 
0.001 
0.001 
0.001 
1 
1 
1 
1 
1 
1 
1 
1 
1 
1 
1 
1 
1 
1 
0.001 
0.001 
0.001 
0.001 
0.001 
0.001 
0.001 
1 
1 
1 
1 
1 
1 
1 
1 
1 
1 
1 
1 
1 
1 
0.001 
0.001 
0.001 
0.001 
0.001 
0.001 
0.001 
1 
1 
1 
1 
1 
1 
1 
1 
1 
1 
1 
1 
1 
1 
0.001 
0.001 
0.001 
0.001 
0.001 
0.001 
0.001 
1 
1 
1 
1 
1 
1 
1 
1 
1 
1 
1 
1 
1 
1 
0.001 
0.001 
0.001 
0.001 
0.001 
0.001 
0.001 
1 
1 
1 
1 
1 
1 
1 
1 
1 
1 
1 
1 
1 
1 
0.001 
0.001 
0.001 
0.001 
0.001 
0.001 
0.001 
1 
1 
1 
1 
1 
1 
1 
1 
1 
1 
1 
1 
1 
1 
1 
1 
1 
1 
1 
1 
1 
1 
1 
1 
1 
1 
1 
1 
1 
1 
1 
1 
1 
1 
1 
1 
1 
1 
1 
1 
1 
1 
1 
1 
1 
1 
1 
1 
1 
1 
1 
1 
1 
1 
1 
1 
1 
1 
1 
1 
1 
1 
1 
1 
1 
1 
1 
1 
1 
1 
1 
1 
1 
1 
1 
1 
1 
1 
1 
1 
1 
1 
1 
1 
1 
1 
1 
1 
1 
1 
1 
1 
1 
1 
1 
1 
1 
1 
1 
1 
1 
1 
1 
1 
1 
1 
1 
1 
1 
1 
1 
1 
1 
1 
1 
1 
1 
1 
1 
1 
1 
1 
1 
1 
1 
1 
1 
1 
1 
1 
1 
1 
1 
1 
1 
1 
1 
1 
1 
1 
1 
1 
1 
1 
1 
1 
1 
1 
1 
1 
1 
1 
1 
1 
