# vtk DataFile Version 3.0
MOAB 5.4.1
ASCII
DATASET UNSTRUCTURED_GRID
POINTS 648 double
0 0 -0
80 0 -0
160 0 -0
240 0 -0
320 0 -0
400 0 -0
480 0 -0
560 0 -0
640 0 -0
720 0 -0
800 0 -0
880 0 -0
960 0 -0
1040 0 -0
1120 0 -0
1200 0 -0
1280 0 -0
1360 0 -0
0 80 -0
80 80 -0
160 80 -0
240 80 -0
320 80 -0
400 80 -0
480 80 -0
560 80 -0
640 80 -0
720 80 -0
800 80 -0
880 80 -0
960 80 -0
1040 80 -0
1120 80 -0
1200 80 -0
1280 80 -0
1360 80 -0
0 160 -0
80 160 -0
160 160 -0
240 160 -0
320 160 -0
400 160 -0
480 160 -0
560 160 -0
640 160 -0
720 160 -0
800 160 -0
880 160 -0
960 160 -0
1040 160 -0
1120 160 -0
1200 160 -0
1280 160 -0
1360 160 -0
0 240 -0
80 240 -0
160 240 -0
240 240 -0
320 240 -0
400 240 -0
480 240 -0
560 240 -0
640 240 -0
720 240 -0
800 240 -0
880 240 -0
960 240 -0
1040 240 -0
1120 240 -0
1200 240 -0
1280 240 -0
1360 240 -0
0 320 -0
80 320 -0
160 320 -0
240 320 -0
320 320 -0
400 320 -0
480 320 -0
560 320 -0
640 320 -0
720 320 -0
800 320 -0
880 320 -0
960 320 -0
1040 320 -0
1120 320 -0
1200 320 -0
1280 320 -0
1360 320 -0
0 400 -0
80 400 -0
160 400 -0
240 400 -0
320 400 -0
400 400 -0
480 400 -0
560 400 -0
640 400 -0
720 400 -0
800 400 -0
880 400 -0
960 400 -0
1040 400 -0
1120 400 -0
1200 400 -0
1280 400 -0
1360 400 -0
0 480 -0
80 480 -0
160 480 -0
240 480 -0
320 480 -0
400 480 -0
480 480 -0
560 480 -0
640 480 -0
720 480 -0
800 480 -0
880 480 -0
960 480 -0
1040 480 -0
1120 480 -0
1200 480 -0
1280 480 -0
1360 480 -0
0 560 -0
80 560 -0
160 560 -0
240 560 -0
320 560 -0
400 560 -0
480 560 -0
560 560 -0
640 560 -0
720 560 -0
800 560 -0
880 560 -0
960 560 -0
1040 560 -0
1120 560 -0
1200 560 -0
1280 560 -0
1360 560 -0
0 640 -0
80 640 -0
160 640 -0
240 640 -0
320 640 -0
400 640 -0
480 640 -0
560 640 -0
640 640 -0
720 640 -0
800 640 -0
880 640 -0
960 640 -0
1040 640 -0
1120 640 -0
1200 640 -0
1280 640 -0
1360 640 -0
0 720 -0
80 720 -0
160 720 -0
240 720 -0
320 720 -0
400 720 -0
480 720 -0
560 720 -0
640 720 -0
720 720 -0
800 720 -0
880 720 -0
960 720 -0
1040 720 -0
1120 720 -0
1200 720 -0
1280 720 -0
1360 720 -0
0 800 -0
80 800 -0
160 800 -0
240 800 -0
320 800 -0
400 800 -0
480 800 -0
560 800 -0
640 800 -0
720 800 -0
800 800 -0
880 800 -0
960 800 -0
1040 800 -0
1120 800 -0
1200 800 -0
1280 800 -0
1360 800 -0
0 880 -0
80 880 -0
160 880 -0
240 880 -0
320 880 -0
400 880 -0
480 880 -0
560 880 -0
640 880 -0
720 880 -0
800 880 -0
880 880 -0
960 880 -0
1040 880 -0
1120 880 -0
1200 880 -0
1280 880 -0
1360 880 -0
0 960 -0
80 960 -0
160 960 -0
240 960 -0
320 960 -0
400 960 -0
480 960 -0
560 960 -0
640 960 -0
720 960 -0
800 960 -0
880 960 -0
960 960 -0
1040 960 -0
1120 960 -0
1200 960 -0
1280 960 -0
1360 960 -0
0 1040 -0
80 1040 -0
160 1040 -0
240 1040 -0
320 1040 -0
400 1040 -0
480 1040 -0
560 1040 -0
640 1040 -0
720 1040 -0
800 1040 -0
880 1040 -0
960 1040 -0
1040 1040 -0
1120 1040 -0
1200 1040 -0
1280 1040 -0
1360 1040 -0
0 1120 -0
80 1120 -0
160 1120 -0
240 1120 -0
320 1120 -0
400 1120 -0
480 1120 -0
560 1120 -0
640 1120 -0
720 1120 -0
800 1120 -0
880 1120 -0
960 1120 -0
1040 1120 -0
1120 1120 -0
1200 1120 -0
1280 1120 -0
1360 1120 -0
0 1200 -0
80 1200 -0
160 1200 -0
240 1200 -0
320 1200 -0
400 1200 -0
480 1200 -0
560 1200 -0
640 1200 -0
720 1200 -0
800 1200 -0
880 1200 -0
960 1200 -0
1040 1200 -0
1120 1200 -0
1200 1200 -0
1280 1200 -0
1360 1200 -0
0 1280 -0
80 1280 -0
160 1280 -0
240 1280 -0
320 1280 -0
400 1280 -0
480 1280 -0
560 1280 -0
640 1280 -0
720 1280 -0
800 1280 -0
880 1280 -0
960 1280 -0
1040 1280 -0
1120 1280 -0
1200 1280 -0
1280 1280 -0
1360 1280 -0
0 1360 -0
80 1360 -0
160 1360 -0
240 1360 -0
320 1360 -0
400 1360 -0
480 1360 -0
560 1360 -0
640 1360 -0
720 1360 -0
800 1360 -0
880 1360 -0
960 1360 -0
1040 1360 -0
1120 1360 -0
1200 1360 -0
1280 1360 -0
1360 1360 -0
0 0 -30
80 0 -30
160 0 -30
240 0 -30
320 0 -30
400 0 -30
480 0 -30
560 0 -30
640 0 -30
720 0 -30
800 0 -30
880 0 -30
960 0 -30
1040 0 -30
1120 0 -30
1200 0 -30
1280 0 -30
1360 0 -30
0 80 -30
80 80 -30
160 80 -30
240 80 -30
320 80 -30
400 80 -30
480 80 -30
560 80 -30
640 80 -30
720 80 -30
800 80 -30
880 80 -30
960 80 -30
1040 80 -30
1120 80 -30
1200 80 -30
1280 80 -30
1360 80 -30
0 160 -30
80 160 -30
160 160 -30
240 160 -30
320 160 -30
400 160 -30
480 160 -30
560 160 -30
640 160 -30
720 160 -30
800 160 -30
880 160 -30
960 160 -30
1040 160 -30
1120 160 -30
1200 160 -30
1280 160 -30
1360 160 -30
0 240 -30
80 240 -30
160 240 -30
240 240 -30
320 240 -30
400 240 -30
480 240 -30
560 240 -30
640 240 -30
720 240 -30
800 240 -30
880 240 -30
960 240 -30
1040 240 -30
1120 240 -30
1200 240 -30
1280 240 -30
1360 240 -30
0 320 -30
80 320 -30
160 320 -30
240 320 -30
320 320 -30
400 320 -30
480 320 -30
560 320 -30
640 320 -30
720 320 -30
800 320 -30
880 320 -30
960 320 -30
1040 320 -30
1120 320 -30
1200 320 -30
1280 320 -30
1360 320 -30
0 400 -30
80 400 -30
160 400 -30
240 400 -30
320 400 -30
400 400 -30
480 400 -30
560 400 -30
640 400 -30
720 400 -30
800 400 -30
880 400 -30
960 400 -30
1040 400 -30
1120 400 -30
1200 400 -30
1280 400 -30
1360 400 -30
0 480 -30
80 480 -30
160 480 -30
240 480 -30
320 480 -30
400 480 -30
480 480 -30
560 480 -30
640 480 -30
720 480 -30
800 480 -30
880 480 -30
960 480 -30
1040 480 -30
1120 480 -30
1200 480 -30
1280 480 -30
1360 480 -30
0 560 -30
80 560 -30
160 560 -30
240 560 -30
320 560 -30
400 560 -30
480 560 -30
560 560 -30
640 560 -30
720 560 -30
800 560 -30
880 560 -30
960 560 -30
1040 560 -30
1120 560 -30
1200 560 -30
1280 560 -30
1360 560 -30
0 640 -30
80 640 -30
160 640 -30
240 640 -30
320 640 -30
400 640 -30
480 640 -30
560 640 -30
640 640 -30
720 640 -30
800 640 -30
880 640 -30
960 640 -30
1040 640 -30
1120 640 -30
1200 640 -30
1280 640 -30
1360 640 -30
0 720 -30
80 720 -30
160 720 -30
240 720 -30
320 720 -30
400 720 -30
480 720 -30
560 720 -30
640 720 -30
720 720 -30
800 720 -30
880 720 -30
960 720 -30
1040 720 -30
1120 720 -30
1200 720 -30
1280 720 -30
1360 720 -30
0 800 -30
80 800 -30
160 800 -30
240 800 -30
320 800 -30
400 800 -30
480 800 -30
560 800 -30
640 800 -30
720 800 -30
800 800 -30
880 800 -30
960 800 -30
1040 800 -30
1120 800 -30
1200 800 -30
1280 800 -30
1360 800 -30
0 880 -30
80 880 -30
160 880 -30
240 880 -30
320 880 -30
400 880 -30
480 880 -30
560 880 -30
640 880 -30
720 880 -30
800 880 -30
880 880 -30
960 880 -30
1040 880 -30
1120 880 -30
1200 880 -30
1280 880 -30
1360 880 -30
0 960 -30
80 960 -30
160 960 -30
240 960 -30
320 960 -30
400 960 -30
480 960 -30
560 960 -30
640 960 -30
720 960 -30
800 960 -30
880 960 -30
960 960 -30
1040 960 -30
1120 960 -30
1200 960 -30
1280 960 -30
1360 960 -30
0 1040 -30
80 1040 -30
160 1040 -30
240 1040 -30
320 1040 -30
400 1040 -30
480 1040 -30
560 1040 -30
640 1040 -30
720 1040 -30
800 1040 -30
880 1040 -30
960 1040 -30
1040 1040 -30
1120 1040 -30
1200 1040 -30
1280 1040 -30
1360 1040 -30
0 1120 -30
80 1120 -30
160 1120 -30
240 1120 -30
320 1120 -30
400 1120 -30
480 1120 -30
560 1120 -30
640 1120 -30
720 1120 -30
800 1120 -30
880 1120 -30
960 1120 -30
1040 1120 -30
1120 1120 -30
1200 1120 -30
1280 1120 -30
1360 1120 -30
0 1200 -30
80 1200 -30
160 1200 -30
240 1200 -30
320 1200 -30
400 1200 -30
480 1200 -30
560 1200 -30
640 1200 -30
720 1200 -30
800 1200 -30
880 1200 -30
960 1200 -30
1040 1200 -30
1120 1200 -30
1200 1200 -30
1280 1200 -30
1360 1200 -30
0 1280 -30
80 1280 -30
160 1280 -30
240 1280 -30
320 1280 -30
400 1280 -30
480 1280 -30
560 1280 -30
640 1280 -30
720 1280 -30
800 1280 -30
880 1280 -30
960 1280 -30
1040 1280 -30
1120 1280 -30
1200 1280 -30
1280 1280 -30
1360 1280 -30
0 1360 -30
80 1360 -30
160 1360 -30
240 1360 -30
320 1360 -30
400 1360 -30
480 1360 -30
560 1360 -30
640 1360 -30
720 1360 -30
800 1360 -30
880 1360 -30
960 1360 -30
1040 1360 -30
1120 1360 -30
1200 1360 -30
1280 1360 -30
1360 1360 -30
CELLS 289 2601
8 0 1 19 18 324 325 343 342
8 18 19 37 36 342 343 361 360
8 36 37 55 54 360 361 379 378
8 54 55 73 72 378 379 397 396
8 72 73 91 90 396 397 415 414
8 90 91 109 108 414 415 433 432
8 108 109 127 126 432 433 451 450
8 126 127 145 144 450 451 469 468
8 144 145 163 162 468 469 487 486
8 162 163 181 180 486 487 505 504
8 180 181 199 198 504 505 523 522
8 198 199 217 216 522 523 541 540
8 216 217 235 234 540 541 559 558
8 234 235 253 252 558 559 577 576
8 252 253 271 270 576 577 595 594
8 270 271 289 288 594 595 613 612
8 288 289 307 306 612 613 631 630
8 1 2 20 19 325 326 344 343
8 19 20 38 37 343 344 362 361
8 37 38 56 55 361 362 380 379
8 55 56 74 73 379 380 398 397
8 73 74 92 91 397 398 416 415
8 91 92 110 109 415 416 434 433
8 109 110 128 127 433 434 452 451
8 127 128 146 145 451 452 470 469
8 145 146 164 163 469 470 488 487
8 163 164 182 181 487 488 506 505
8 181 182 200 199 505 506 524 523
8 199 200 218 217 523 524 542 541
8 217 218 236 235 541 542 560 559
8 235 236 254 253 559 560 578 577
8 253 254 272 271 577 578 596 595
8 271 272 290 289 595 596 614 613
8 289 290 308 307 613 614 632 631
8 2 3 21 20 326 327 345 344
8 20 21 39 38 344 345 363 362
8 38 39 57 56 362 363 381 380
8 56 57 75 74 380 381 399 398
8 74 75 93 92 398 399 417 416
8 92 93 111 110 416 417 435 434
8 110 111 129 128 434 435 453 452
8 128 129 147 146 452 453 471 470
8 146 147 165 164 470 471 489 488
8 164 165 183 182 488 489 507 506
8 182 183 201 200 506 507 525 524
8 200 201 219 218 524 525 543 542
8 218 219 237 236 542 543 561 560
8 236 237 255 254 560 561 579 578
8 254 255 273 272 578 579 597 596
8 272 273 291 290 596 597 615 614
8 290 291 309 308 614 615 633 632
8 3 4 22 21 327 328 346 345
8 21 22 40 39 345 346 364 363
8 39 40 58 57 363 364 382 381
8 57 58 76 75 381 382 400 399
8 75 76 94 93 399 400 418 417
8 93 94 112 111 417 418 436 435
8 111 112 130 129 435 436 454 453
8 129 130 148 147 453 454 472 471
8 147 148 166 165 471 472 490 489
8 165 166 184 183 489 490 508 507
8 183 184 202 201 507 508 526 525
8 201 202 220 219 525 526 544 543
8 219 220 238 237 543 544 562 561
8 237 238 256 255 561 562 580 579
8 255 256 274 273 579 580 598 597
8 273 274 292 291 597 598 616 615
8 291 292 310 309 615 616 634 633
8 4 5 23 22 328 329 347 346
8 22 23 41 40 346 347 365 364
8 40 41 59 58 364 365 383 382
8 58 59 77 76 382 383 401 400
8 76 77 95 94 400 401 419 418
8 94 95 113 112 418 419 437 436
8 112 113 131 130 436 437 455 454
8 130 131 149 148 454 455 473 472
8 148 149 167 166 472 473 491 490
8 166 167 185 184 490 491 509 508
8 184 185 203 202 508 509 527 526
8 202 203 221 220 526 527 545 544
8 220 221 239 238 544 545 563 562
8 238 239 257 256 562 563 581 580
8 256 257 275 274 580 581 599 598
8 274 275 293 292 598 599 617 616
8 292 293 311 310 616 617 635 634
8 5 6 24 23 329 330 348 347
8 23 24 42 41 347 348 366 365
8 41 42 60 59 365 366 384 383
8 59 60 78 77 383 384 402 401
8 77 78 96 95 401 402 420 419
8 95 96 114 113 419 420 438 437
8 113 114 132 131 437 438 456 455
8 131 132 150 149 455 456 474 473
8 149 150 168 167 473 474 492 491
8 167 168 186 185 491 492 510 509
8 185 186 204 203 509 510 528 527
8 203 204 222 221 527 528 546 545
8 221 222 240 239 545 546 564 563
8 239 240 258 257 563 564 582 581
8 257 258 276 275 581 582 600 599
8 275 276 294 293 599 600 618 617
8 293 294 312 311 617 618 636 635
8 6 7 25 24 330 331 349 348
8 24 25 43 42 348 349 367 366
8 42 43 61 60 366 367 385 384
8 60 61 79 78 384 385 403 402
8 78 79 97 96 402 403 421 420
8 96 97 115 114 420 421 439 438
8 114 115 133 132 438 439 457 456
8 132 133 151 150 456 457 475 474
8 150 151 169 168 474 475 493 492
8 168 169 187 186 492 493 511 510
8 186 187 205 204 510 511 529 528
8 204 205 223 222 528 529 547 546
8 222 223 241 240 546 547 565 564
8 240 241 259 258 564 565 583 582
8 258 259 277 276 582 583 601 600
8 276 277 295 294 600 601 619 618
8 294 295 313 312 618 619 637 636
8 7 8 26 25 331 332 350 349
8 25 26 44 43 349 350 368 367
8 43 44 62 61 367 368 386 385
8 61 62 80 79 385 386 404 403
8 79 80 98 97 403 404 422 421
8 97 98 116 115 421 422 440 439
8 115 116 134 133 439 440 458 457
8 133 134 152 151 457 458 476 475
8 151 152 170 169 475 476 494 493
8 169 170 188 187 493 494 512 511
8 187 188 206 205 511 512 530 529
8 205 206 224 223 529 530 548 547
8 223 224 242 241 547 548 566 565
8 241 242 260 259 565 566 584 583
8 259 260 278 277 583 584 602 601
8 277 278 296 295 601 602 620 619
8 295 296 314 313 619 620 638 637
8 8 9 27 26 332 333 351 350
8 26 27 45 44 350 351 369 368
8 44 45 63 62 368 369 387 386
8 62 63 81 80 386 387 405 404
8 80 81 99 98 404 405 423 422
8 98 99 117 116 422 423 441 440
8 116 117 135 134 440 441 459 458
8 134 135 153 152 458 459 477 476
8 152 153 171 170 476 477 495 494
8 170 171 189 188 494 495 513 512
8 188 189 207 206 512 513 531 530
8 206 207 225 224 530 531 549 548
8 224 225 243 242 548 549 567 566
8 242 243 261 260 566 567 585 584
8 260 261 279 278 584 585 603 602
8 278 279 297 296 602 603 621 620
8 296 297 315 314 620 621 639 638
8 9 10 28 27 333 334 352 351
8 27 28 46 45 351 352 370 369
8 45 46 64 63 369 370 388 387
8 63 64 82 81 387 388 406 405
8 81 82 100 99 405 406 424 423
8 99 100 118 117 423 424 442 441
8 117 118 136 135 441 442 460 459
8 135 136 154 153 459 460 478 477
8 153 154 172 171 477 478 496 495
8 171 172 190 189 495 496 514 513
8 189 190 208 207 513 514 532 531
8 207 208 226 225 531 532 550 549
8 225 226 244 243 549 550 568 567
8 243 244 262 261 567 568 586 585
8 261 262 280 279 585 586 604 603
8 279 280 298 297 603 604 622 621
8 297 298 316 315 621 622 640 639
8 10 11 29 28 334 335 353 352
8 28 29 47 46 352 353 371 370
8 46 47 65 64 370 371 389 388
8 64 65 83 82 388 389 407 406
8 82 83 101 100 406 407 425 424
8 100 101 119 118 424 425 443 442
8 118 119 137 136 442 443 461 460
8 136 137 155 154 460 461 479 478
8 154 155 173 172 478 479 497 496
8 172 173 191 190 496 497 515 514
8 190 191 209 208 514 515 533 532
8 208 209 227 226 532 533 551 550
8 226 227 245 244 550 551 569 568
8 244 245 263 262 568 569 587 586
8 262 263 281 280 586 587 605 604
8 280 281 299 298 604 605 623 622
8 298 299 317 316 622 623 641 640
8 11 12 30 29 335 336 354 353
8 29 30 48 47 353 354 372 371
8 47 48 66 65 371 372 390 389
8 65 66 84 83 389 390 408 407
8 83 84 102 101 407 408 426 425
8 101 102 120 119 425 426 444 443
8 119 120 138 137 443 444 462 461
8 137 138 156 155 461 462 480 479
8 155 156 174 173 479 480 498 497
8 173 174 192 191 497 498 516 515
8 191 192 210 209 515 516 534 533
8 209 210 228 227 533 534 552 551
8 227 228 246 245 551 552 570 569
8 245 246 264 263 569 570 588 587
8 263 264 282 281 587 588 606 605
8 281 282 300 299 605 606 624 623
8 299 300 318 317 623 624 642 641
8 12 13 31 30 336 337 355 354
8 30 31 49 48 354 355 373 372
8 48 49 67 66 372 373 391 390
8 66 67 85 84 390 391 409 408
8 84 85 103 102 408 409 427 426
8 102 103 121 120 426 427 445 444
8 120 121 139 138 444 445 463 462
8 138 139 157 156 462 463 481 480
8 156 157 175 174 480 481 499 498
8 174 175 193 192 498 499 517 516
8 192 193 211 210 516 517 535 534
8 210 211 229 228 534 535 553 552
8 228 229 247 246 552 553 571 570
8 246 247 265 264 570 571 589 588
8 264 265 283 282 588 589 607 606
8 282 283 301 300 606 607 625 624
8 300 301 319 318 624 625 643 642
8 13 14 32 31 337 338 356 355
8 31 32 50 49 355 356 374 373
8 49 50 68 67 373 374 392 391
8 67 68 86 85 391 392 410 409
8 85 86 104 103 409 410 428 427
8 103 104 122 121 427 428 446 445
8 121 122 140 139 445 446 464 463
8 139 140 158 157 463 464 482 481
8 157 158 176 175 481 482 500 499
8 175 176 194 193 499 500 518 517
8 193 194 212 211 517 518 536 535
8 211 212 230 229 535 536 554 553
8 229 230 248 247 553 554 572 571
8 247 248 266 265 571 572 590 589
8 265 266 284 283 589 590 608 607
8 283 284 302 301 607 608 626 625
8 301 302 320 319 625 626 644 643
8 14 15 33 32 338 339 357 356
8 32 33 51 50 356 357 375 374
8 50 51 69 68 374 375 393 392
8 68 69 87 86 392 393 411 410
8 86 87 105 104 410 411 429 428
8 104 105 123 122 428 429 447 446
8 122 123 141 140 446 447 465 464
8 140 141 159 158 464 465 483 482
8 158 159 177 176 482 483 501 500
8 176 177 195 194 500 501 519 518
8 194 195 213 212 518 519 537 536
8 212 213 231 230 536 537 555 554
8 230 231 249 248 554 555 573 572
8 248 249 267 266 572 573 591 590
8 266 267 285 284 590 591 609 608
8 284 285 303 302 608 609 627 626
8 302 303 321 320 626 627 645 644
8 15 16 34 33 339 340 358 357
8 33 34 52 51 357 358 376 375
8 51 52 70 69 375 376 394 393
8 69 70 88 87 393 394 412 411
8 87 88 106 105 411 412 430 429
8 105 106 124 123 429 430 448 447
8 123 124 142 141 447 448 466 465
8 141 142 160 159 465 466 484 483
8 159 160 178 177 483 484 502 501
8 177 178 196 195 501 502 520 519
8 195 196 214 213 519 520 538 537
8 213 214 232 231 537 538 556 555
8 231 232 250 249 555 556 574 573
8 249 250 268 267 573 574 592 591
8 267 268 286 285 591 592 610 609
8 285 286 304 303 609 610 628 627
8 303 304 322 321 627 628 646 645
8 16 17 35 34 340 341 359 358
8 34 35 53 52 358 359 377 376
8 52 53 71 70 376 377 395 394
8 70 71 89 88 394 395 413 412
8 88 89 107 106 412 413 431 430
8 106 107 125 124 430 431 449 448
8 124 125 143 142 448 449 467 466
8 142 143 161 160 466 467 485 484
8 160 161 179 178 484 485 503 502
8 178 179 197 196 502 503 521 520
8 196 197 215 214 520 521 539 538
8 214 215 233 232 538 539 557 556
8 232 233 251 250 556 557 575 574
8 250 251 269 268 574 575 593 592
8 268 269 287 286 592 593 611 610
8 286 287 305 304 610 611 629 628
8 304 305 323 322 628 629 647 646
CELL_TYPES 289
12
12
12
12
12
12
12
12
12
12
12
12
12
12
12
12
12
12
12
12
12
12
12
12
12
12
12
12
12
12
12
12
12
12
12
12
12
12
12
12
12
12
12
12
12
12
12
12
12
12
12
12
12
12
12
12
12
12
12
12
12
12
12
12
12
12
12
12
12
12
12
12
12
12
12
12
12
12
12
12
12
12
12
12
12
12
12
12
12
12
12
12
12
12
12
12
12
12
12
12
12
12
12
12
12
12
12
12
12
12
12
12
12
12
12
12
12
12
12
12
12
12
12
12
12
12
12
12
12
12
12
12
12
12
12
12
12
12
12
12
12
12
12
12
12
12
12
12
12
12
12
12
12
12
12
12
12
12
12
12
12
12
12
12
12
12
12
12
12
12
12
12
12
12
12
12
12
12
12
12
12
12
12
12
12
12
12
12
12
12
12
12
12
12
12
12
12
12
12
12
12
12
12
12
12
12
12
12
12
12
12
12
12
12
12
12
12
12
12
12
12
12
12
12
12
12
12
12
12
12
12
12
12
12
12
12
12
12
12
12
12
12
12
12
12
12
12
12
12
12
12
12
12
12
12
12
12
12
12
12
12
12
12
12
12
12
12
12
12
12
12
12
12
12
12
12
12
12
12
12
12
12
12
12
12
12
12
12
12
POINT_DATA 648
SCALARS GLOBAL_ID int 1
LOOKUP_TABLE default
-1 
-1 
-1 
-1 
-1 
-1 
-1 
-1 
-1 
-1 
-1 
-1 
-1 
-1 
-1 
-1 
-1 
-1 
-1 
-1 
-1 
-1 
-1 
-1 
-1 
-1 
-1 
-1 
-1 
-1 
-1 
-1 
-1 
-1 
-1 
-1 
-1 
-1 
-1 
-1 
-1 
-1 
-1 
-1 
-1 
-1 
-1 
-1 
-1 
-1 
-1 
-1 
-1 
-1 
-1 
-1 
-1 
-1 
-1 
-1 
-1 
-1 
-1 
-1 
-1 
-1 
-1 
-1 
-1 
-1 
-1 
-1 
-1 
-1 
-1 
-1 
-1 
-1 
-1 
-1 
-1 
-1 
-1 
-1 
-1 
-1 
-1 
-1 
-1 
-1 
-1 
-1 
-1 
-1 
-1 
-1 
-1 
-1 
-1 
-1 
-1 
-1 
-1 
-1 
-1 
-1 
-1 
-1 
-1 
-1 
-1 
-1 
-1 
-1 
-1 
-1 
-1 
-1 
-1 
-1 
-1 
-1 
-1 
-1 
-1 
-1 
-1 
-1 
-1 
-1 
-1 
-1 
-1 
-1 
-1 
-1 
-1 
-1 
-1 
-1 
-1 
-1 
-1 
-1 
-1 
-1 
-1 
-1 
-1 
-1 
-1 
-1 
-1 
-1 
-1 
-1 
-1 
-1 
-1 
-1 
-1 
-1 
-1 
-1 
-1 
-1 
-1 
-1 
-1 
-1 
-1 
-1 
-1 
-1 
-1 
-1 
-1 
-1 
-1 
-1 
-1 
-1 
-1 
-1 
-1 
-1 
-1 
-1 
-1 
-1 
-1 
-1 
-1 
-1 
-1 
-1 
-1 
-1 
-1 
-1 
-1 
-1 
-1 
-1 
-1 
-1 
-1 
-1 
-1 
-1 
-1 
-1 
-1 
-1 
-1 
-1 
-1 
-1 
-1 
-1 
-1 
-1 
-1 
-1 
-1 
-1 
-1 
-1 
-1 
-1 
-1 
-1 
-1 
-1 
-1 
-1 
-1 
-1 
-1 
-1 
-1 
-1 
-1 
-1 
-1 
-1 
-1 
-1 
-1 
-1 
-1 
-1 
-1 
-1 
-1 
-1 
-1 
-1 
-1 
-1 
-1 
-1 
-1 
-1 
-1 
-1 
-1 
-1 
-1 
-1 
-1 
-1 
-1 
-1 
-1 
-1 
-1 
-1 
-1 
-1 
-1 
-1 
-1 
-1 
-1 
-1 
-1 
-1 
-1 
-1 
-1 
-1 
-1 
-1 
-1 
-1 
-1 
-1 
-1 
-1 
-1 
-1 
-1 
-1 
-1 
-1 
-1 
-1 
-1 
-1 
-1 
-1 
-1 
-1 
-1 
-1 
-1 
-1 
-1 
-1 
-1 
-1 
-1 
-1 
-1 
-1 
-1 
-1 
-1 
-1 
-1 
-1 
-1 
-1 
-1 
-1 
-1 
-1 
-1 
-1 
-1 
-1 
-1 
-1 
-1 
-1 
-1 
-1 
-1 
-1 
-1 
-1 
-1 
-1 
-1 
-1 
-1 
-1 
-1 
-1 
-1 
-1 
-1 
-1 
-1 
-1 
-1 
-1 
-1 
-1 
-1 
-1 
-1 
-1 
-1 
-1 
-1 
-1 
-1 
-1 
-1 
-1 
-1 
-1 
-1 
-1 
-1 
-1 
-1 
-1 
-1 
-1 
-1 
-1 
-1 
-1 
-1 
-1 
-1 
-1 
-1 
-1 
-1 
-1 
-1 
-1 
-1 
-1 
-1 
-1 
-1 
-1 
-1 
-1 
-1 
-1 
-1 
-1 
-1 
-1 
-1 
-1 
-1 
-1 
-1 
-1 
-1 
-1 
-1 
-1 
-1 
-1 
-1 
-1 
-1 
-1 
-1 
-1 
-1 
-1 
-1 
-1 
-1 
-1 
-1 
-1 
-1 
-1 
-1 
-1 
-1 
-1 
-1 
-1 
-1 
-1 
-1 
-1 
-1 
-1 
-1 
-1 
-1 
-1 
-1 
-1 
-1 
-1 
-1 
-1 
-1 
-1 
-1 
-1 
-1 
-1 
-1 
-1 
-1 
-1 
-1 
-1 
-1 
-1 
-1 
-1 
-1 
-1 
-1 
-1 
-1 
-1 
-1 
-1 
-1 
-1 
-1 
-1 
-1 
-1 
-1 
-1 
-1 
-1 
-1 
-1 
-1 
-1 
-1 
-1 
-1 
-1 
-1 
-1 
-1 
-1 
-1 
-1 
-1 
-1 
-1 
-1 
-1 
-1 
-1 
-1 
-1 
-1 
-1 
-1 
-1 
-1 
-1 
-1 
-1 
-1 
-1 
-1 
-1 
-1 
-1 
-1 
-1 
-1 
-1 
-1 
-1 
-1 
-1 
-1 
-1 
-1 
-1 
-1 
-1 
-1 
-1 
-1 
-1 
-1 
-1 
-1 
-1 
-1 
-1 
-1 
-1 
-1 
-1 
-1 
-1 
-1 
-1 
-1 
-1 
-1 
-1 
-1 
-1 
-1 
-1 
-1 
-1 
-1 
-1 
-1 
-1 
-1 
-1 
-1 
-1 
-1 
-1 
-1 
-1 
-1 
-1 
-1 
-1 
-1 
-1 
-1 
-1 
-1 
-1 
-1 
-1 
-1 
-1 
-1 
-1 
-1 
-1 
-1 
-1 
-1 
-1 
-1 
-1 
-1 
-1 
-1 
-1 
-1 
-1 
-1 
-1 
-1 
-1 
-1 
-1 
-1 
-1 
-1 
-1 
-1 
-1 
-1 
-1 
-1 
-1 
-1 
-1 
-1 
-1 
-1 
-1 
-1 
CELL_DATA 289
SCALARS GLOBAL_ID int 1
LOOKUP_TABLE default
-1 
-1 
-1 
-1 
-1 
-1 
-1 
-1 
-1 
-1 
-1 
-1 
-1 
-1 
-1 
-1 
-1 
-1 
-1 
-1 
-1 
-1 
-1 
-1 
-1 
-1 
-1 
-1 
-1 
-1 
-1 
-1 
-1 
-1 
-1 
-1 
-1 
-1 
-1 
-1 
-1 
-1 
-1 
-1 
-1 
-1 
-1 
-1 
-1 
-1 
-1 
-1 
-1 
-1 
-1 
-1 
-1 
-1 
-1 
-1 
-1 
-1 
-1 
-1 
-1 
-1 
-1 
-1 
-1 
-1 
-1 
-1 
-1 
-1 
-1 
-1 
-1 
-1 
-1 
-1 
-1 
-1 
-1 
-1 
-1 
-1 
-1 
-1 
-1 
-1 
-1 
-1 
-1 
-1 
-1 
-1 
-1 
-1 
-1 
-1 
-1 
-1 
-1 
-1 
-1 
-1 
-1 
-1 
-1 
-1 
-1 
-1 
-1 
-1 
-1 
-1 
-1 
-1 
-1 
-1 
-1 
-1 
-1 
-1 
-1 
-1 
-1 
-1 
-1 
-1 
-1 
-1 
-1 
-1 
-1 
-1 
-1 
-1 
-1 
-1 
-1 
-1 
-1 
-1 
-1 
-1 
-1 
-1 
-1 
-1 
-1 
-1 
-1 
-1 
-1 
-1 
-1 
-1 
-1 
-1 
-1 
-1 
-1 
-1 
-1 
-1 
-1 
-1 
-1 
-1 
-1 
-1 
-1 
-1 
-1 
-1 
-1 
-1 
-1 
-1 
-1 
-1 
-1 
-1 
-1 
-1 
-1 
-1 
-1 
-1 
-1 
-1 
-1 
-1 
-1 
-1 
-1 
-1 
-1 
-1 
-1 
-1 
-1 
-1 
-1 
-1 
-1 
-1 
-1 
-1 
-1 
-1 
-1 
-1 
-1 
-1 
-1 
-1 
-1 
-1 
-1 
-1 
-1 
-1 
-1 
-1 
-1 
-1 
-1 
-1 
-1 
-1 
-1 
-1 
-1 
-1 
-1 
-1 
-1 
-1 
-1 
-1 
-1 
-1 
-1 
-1 
-1 
-1 
-1 
-1 
-1 
-1 
-1 
-1 
-1 
-1 
-1 
-1 
-1 
-1 
-1 
-1 
-1 
-1 
-1 
-1 
-1 
-1 
-1 
-1 
-1 
-1 
-1 
-1 
-1 
-1 
-1 
-1 
-1 
-1 
-1 
-1 
-1 
-1 
-1 
-1 
-1 
-1 
-1 
SCALARS P double 1
LOOKUP_TABLE default
6212 
6163 
6144 
6079 
6016 
5982 
5939 
5909 
5892 
5869 
5784 
5730 
5706 
5683 
5675 
5671 
5669 
6168 
6132 
6104 
6051 
6022 
5980 
5934 
5904 
5862 
5810 
5757 
5735 
5706 
5682 
5673 
5668 
5667 
6125 
6117 
6101 
6039 
6002 
5944 
5912 
5884 
5832 
5787 
5758 
5735 
5709 
5685 
5672 
5661 
5654 
6106 
6095 
6065 
6016 
5976 
5919 
5898 
5863 
5816 
5783 
5759 
5730 
5701 
5678 
5664 
5649 
5634 
6058 
6063 
6029 
5989 
5946 
5908 
5886 
5847 
5800 
5771 
5748 
5727 
5686 
5660 
5642 
5632 
5618 
6031 
6032 
6011 
5969 
5917 
5887 
5865 
5826 
5788 
5757 
5731 
5711 
5667 
5634 
5612 
5604 
5601 
6007 
6002 
5925 
5900 
5872 
5865 
5847 
5807 
5767 
5735 
5713 
5687 
5641 
5614 
5594 
5577 
5582 
5927 
5908 
5853 
5847 
5849 
5847 
5819 
5770 
5746 
5722 
5696 
5648 
5616 
5598 
5572 
5558 
5554 
5855 
5853 
5836 
5828 
5823 
5808 
5772 
5743 
5729 
5689 
5631 
5605 
5588 
5558 
5537 
5529 
5524 
5826 
5829 
5811 
5801 
5790 
5766 
5735 
5725 
5676 
5630 
5576 
5564 
5557 
5525 
5513 
5506 
5506 
5796 
5795 
5786 
5782 
5770 
5741 
5704 
5674 
5612 
5599 
5549 
5536 
5510 
5491 
5488 
5483 
5485 
5767 
5762 
5765 
5753 
5738 
5709 
5680 
5635 
5591 
5557 
5534 
5512 
5483 
5473 
5469 
5462 
5460 
5743 
5741 
5735 
5719 
5710 
5686 
5661 
5590 
5560 
5543 
5525 
5499 
5476 
5454 
5445 
5441 
5439 
5728 
5717 
5711 
5704 
5693 
5673 
5626 
5566 
5552 
5537 
5509 
5486 
5457 
5427 
5416 
5412 
5404 
5710 
5702 
5699 
5692 
5679 
5665 
5611 
5562 
5548 
5519 
5489 
5469 
5439 
5416 
5393 
5328 
5283 
5700 
5698 
5692 
5682 
5673 
5650 
5609 
5575 
5536 
5503 
5484 
5461 
5431 
5405 
5332 
5213 
5155 
5697 
5694 
5687 
5679 
5668 
5653 
5624 
5569 
5521 
5500 
5476 
5454 
5425 
5398 
5315 
5174 
5029 
SCALARS So double 1
LOOKUP_TABLE default
0 
6.533e-05 
0.2509 
0.3039 
0.3054 
0.3129 
0.3259 
0.3438 
0.3668 
0.3878 
0.4146 
0.5048 
0.6121 
0.7844 
0.866 
0.8792 
0.8801 
0.1974 
0 
0 
0.04143 
0.2872 
0.3001 
0.303 
0.3209 
0.7008 
0.555 
0.5152 
0.5637 
0.6444 
0.7621 
0.8601 
0.8783 
0.8801 
0.08578 
0 
0.412 
0.309 
0.3089 
0.3033 
0.3039 
0.3118 
0.3242 
0.354 
0.3621 
0.372 
0.3854 
0.4164 
0.5906 
0.8215 
0.8789 
0.2987 
0.1433 
0.3295 
0.3165 
0.4305 
0.3266 
0.3214 
0.3225 
0.3278 
0.3365 
0.3502 
0.3745 
0.3935 
0.4115 
0.5348 
0.7357 
0.8589 
0.3001 
0.2829 
0.3035 
0.3097 
0.3165 
0.3223 
0.3288 
0.3417 
0.353 
0.3552 
0.3722 
0.4088 
0.7184 
0.4683 
0.6808 
0.8461 
0.8741 
0.3017 
0.2928 
0.3166 
0.3153 
0.319 
0.3253 
0.3336 
0.3438 
0.3543 
0.3616 
0.3732 
0.3997 
0.5471 
0.5506 
0.7789 
0.8799 
0.879 
0.3064 
0.3013 
0.8211 
0.3714 
0.3318 
0.3358 
0.3504 
0.3793 
0.4134 
0.3921 
0.3917 
0.4004 
0.4222 
0.4956 
0.6106 
0.8023 
0.8799 
0.318 
0.3038 
0.3106 
0.3598 
0.3448 
0.3521 
0.3617 
0.3751 
0.4075 
0.426 
0.4443 
0.4292 
0.4401 
0.5105 
0.6097 
0.8255 
0.8791 
0.3377 
0.3113 
0.3155 
0.3625 
0.3618 
0.6005 
0.4999 
0.403 
0.4266 
0.4565 
0.7847 
0.4771 
0.4758 
0.6885 
0.7318 
0.8657 
0.8796 
0.362 
0.346 
0.3304 
0.3636 
0.3737 
0.4089 
0.4475 
0.4293 
0.5045 
0.5104 
0.8274 
0.669 
0.5427 
0.678 
0.8268 
0.876 
0.88 
0.3839 
0.6212 
0.3516 
0.3757 
0.3877 
0.4345 
0.4728 
0.4704 
0.5247 
0.5866 
0.7681 
0.8442 
0.8541 
0.8392 
0.8711 
0.8793 
0.8801 
0.4024 
0.4985 
0.3672 
0.3916 
0.4004 
0.4632 
0.5193 
0.6172 
0.6596 
0.8211 
0.8655 
0.876 
0.879 
0.8761 
0.8789 
0.8799 
0.88 
0.4315 
0.5853 
0.4168 
0.4172 
0.423 
0.4981 
0.5988 
0.8125 
0.8224 
0.8714 
0.879 
0.8798 
0.88 
0.8796 
0.88 
0.88 
0.88 
0.4865 
0.6653 
0.5384 
0.4937 
0.4897 
0.5592 
0.6946 
0.8264 
0.87 
0.8785 
0.8799 
0.88 
0.88 
0.88 
0.88 
0.88 
0.88 
0.6651 
0.8163 
0.7471 
0.695 
0.7468 
0.8223 
0.874 
0.8765 
0.8791 
0.8798 
0.88 
0.8801 
0.88 
0.88 
0.88 
0.88 
0.88 
0.8603 
0.8741 
0.8684 
0.8551 
0.8723 
0.8775 
0.8799 
0.8801 
0.88 
0.8801 
0.8801 
0.88 
0.88 
0.88 
0.88 
0.88 
0.88 
0.8799 
0.88 
0.8798 
0.879 
0.8798 
0.8801 
0.8801 
0.8801 
0.8801 
0.8801 
0.88 
0.88 
0.88 
0.88 
0.88 
0.88 
0.7366 
SCALARS Sw double 1
LOOKUP_TABLE default
1 
0.9999 
0.7491 
0.6961 
0.6946 
0.6871 
0.6741 
0.6562 
0.6332 
0.6122 
0.5854 
0.4952 
0.3879 
0.2156 
0.134 
0.1208 
0.1199 
0.8026 
1 
1 
0.9586 
0.7128 
0.6999 
0.697 
0.6791 
0.2992 
0.445 
0.4848 
0.4363 
0.3556 
0.2379 
0.1399 
0.1217 
0.1199 
0.9142 
1 
0.588 
0.691 
0.6911 
0.6967 
0.6961 
0.6882 
0.6758 
0.646 
0.6379 
0.628 
0.6146 
0.5836 
0.4094 
0.1785 
0.1211 
0.7013 
0.8567 
0.6705 
0.6835 
0.5695 
0.6734 
0.6786 
0.6775 
0.6722 
0.6635 
0.6498 
0.6255 
0.6065 
0.5885 
0.4652 
0.2643 
0.1411 
0.6999 
0.7171 
0.6965 
0.6903 
0.6835 
0.6777 
0.6712 
0.6583 
0.647 
0.6448 
0.6278 
0.5912 
0.2816 
0.5317 
0.3192 
0.1539 
0.1259 
0.6983 
0.7072 
0.6834 
0.6847 
0.681 
0.6747 
0.6664 
0.6562 
0.6457 
0.6384 
0.6268 
0.6003 
0.4529 
0.4494 
0.2211 
0.1201 
0.121 
0.6936 
0.6987 
0.1789 
0.6286 
0.6682 
0.6642 
0.6496 
0.6207 
0.5866 
0.6079 
0.6083 
0.5996 
0.5778 
0.5044 
0.3894 
0.1977 
0.1201 
0.682 
0.6962 
0.6894 
0.6402 
0.6552 
0.6479 
0.6383 
0.6249 
0.5925 
0.574 
0.5557 
0.5708 
0.5599 
0.4895 
0.3903 
0.1745 
0.1209 
0.6623 
0.6887 
0.6845 
0.6375 
0.6382 
0.3995 
0.5001 
0.597 
0.5734 
0.5435 
0.2153 
0.5229 
0.5242 
0.3115 
0.2682 
0.1343 
0.1204 
0.638 
0.654 
0.6696 
0.6364 
0.6263 
0.5911 
0.5525 
0.5707 
0.4955 
0.4896 
0.1726 
0.331 
0.4573 
0.322 
0.1732 
0.124 
0.12 
0.6161 
0.3788 
0.6484 
0.6243 
0.6123 
0.5655 
0.5272 
0.5296 
0.4753 
0.4134 
0.2319 
0.1558 
0.1459 
0.1608 
0.1289 
0.1207 
0.1199 
0.5976 
0.5015 
0.6328 
0.6084 
0.5996 
0.5368 
0.4807 
0.3828 
0.3404 
0.1789 
0.1345 
0.124 
0.121 
0.1239 
0.1211 
0.1201 
0.12 
0.5685 
0.4147 
0.5832 
0.5828 
0.577 
0.5019 
0.4012 
0.1875 
0.1776 
0.1286 
0.121 
0.1202 
0.12 
0.1204 
0.12 
0.12 
0.12 
0.5135 
0.3347 
0.4616 
0.5063 
0.5103 
0.4408 
0.3054 
0.1736 
0.13 
0.1215 
0.1201 
0.12 
0.12 
0.12 
0.12 
0.12 
0.12 
0.3349 
0.1837 
0.2529 
0.305 
0.2532 
0.1777 
0.126 
0.1235 
0.1209 
0.1202 
0.12 
0.1199 
0.12 
0.12 
0.12 
0.12 
0.12 
0.1397 
0.1259 
0.1316 
0.1449 
0.1277 
0.1225 
0.1201 
0.1199 
0.12 
0.1199 
0.1199 
0.12 
0.12 
0.12 
0.12 
0.12 
0.12 
0.1201 
0.12 
0.1202 
0.121 
0.1202 
0.1199 
0.1199 
0.1199 
0.1199 
0.1199 
0.12 
0.12 
0.12 
0.12 
0.12 
0.12 
0.12 
SCALARS Sg double 1
LOOKUP_TABLE default
0 
0 
0 
0 
0 
0 
0 
0 
0 
0 
0 
0 
0 
0 
0 
0 
0 
0 
0 
0.008784 
0 
0 
0 
0 
0 
0 
0 
0 
0 
0 
0 
0 
0 
0 
0 
0.006521 
0 
0 
0 
0 
0 
0 
0 
0 
0 
0 
0 
0 
0 
0 
0 
0 
0 
0 
0 
0 
0 
0 
0 
0 
0 
0 
0 
0 
0 
0 
0 
0 
0 
0 
0 
0 
0 
0 
0 
0 
0 
0 
0 
0 
0 
0 
0 
0 
0 
0 
0 
0 
0 
0 
0 
0 
0 
0 
0 
0 
0 
0 
0 
0 
0 
0 
0 
0 
0 
0 
0 
0 
0 
0 
0 
0 
0 
0 
0 
0 
0 
0 
0 
0 
0 
0 
0 
0 
0 
0 
0 
0 
0 
0 
0 
0 
0 
0 
0 
0 
0 
0 
0 
0 
0 
0 
0 
0 
0 
0 
0 
0 
0 
0 
0 
0 
0 
0 
0 
0 
0 
0 
0 
0 
0 
0 
0 
0 
0 
0 
0 
0 
0 
0 
0 
0 
0 
0 
0 
0 
0 
0 
0 
0 
0 
0 
0 
0 
0 
0 
0 
0 
0 
0 
0 
0 
0 
0 
0 
0 
0 
0 
0 
0 
0 
0 
0 
0 
0 
0 
0 
0 
0 
0 
0 
0 
0 
0 
0 
0 
0 
0 
0 
0 
0 
0 
0 
0 
0 
0 
0 
0 
0 
0 
0 
0 
0 
0 
0 
0 
0 
0 
0 
0 
0 
0 
0 
0 
0 
0 
0 
0 
0 
0 
0 
0 
0 
0 
0 
0 
0 
0 
0 
0 
0 
0 
0 
0 
0 
0 
0 
0 
0 
0 
0 
0 
0 
0 
0 
0 
0 
0 
0 
0 
0 
0 
0 
0 
0 
0 
0 
0 
0.1434 
