# vtk DataFile Version 3.0
MOAB 5.4.1
ASCII
DATASET UNSTRUCTURED_GRID
POINTS 84 double
0 0 0
1 0 0
2 0 0
3 0 0
4 0 0
5 0 0
6 0 0
7 0 0
8 0 0
9 0 0
10 0 0
11 0 0
12 0 0
13 0 0
14 0 0
15 0 0
16 0 0
17 0 0
18 0 0
19 0 0
20 0 0
0 1 0
1 1 0
2 1 0
3 1 0
4 1 0
5 1 0
6 1 0
7 1 0
8 1 0
9 1 0
10 1 0
11 1 0
12 1 0
13 1 0
14 1 0
15 1 0
16 1 0
17 1 0
18 1 0
19 1 0
20 1 0
0 0 1
1 0 1
2 0 1
3 0 1
4 0 1
5 0 1
6 0 1
7 0 1
8 0 1
9 0 1
10 0 1
11 0 1
12 0 1
13 0 1
14 0 1
15 0 1
16 0 1
17 0 1
18 0 1
19 0 1
20 0 1
0 1 1
1 1 1
2 1 1
3 1 1
4 1 1
5 1 1
6 1 1
7 1 1
8 1 1
9 1 1
10 1 1
11 1 1
12 1 1
13 1 1
14 1 1
15 1 1
16 1 1
17 1 1
18 1 1
19 1 1
20 1 1
CELLS 20 180
8 0 1 22 21 42 43 64 63
8 1 2 23 22 43 44 65 64
8 2 3 24 23 44 45 66 65
8 3 4 25 24 45 46 67 66
8 4 5 26 25 46 47 68 67
8 5 6 27 26 47 48 69 68
8 6 7 28 27 48 49 70 69
8 7 8 29 28 49 50 71 70
8 8 9 30 29 50 51 72 71
8 9 10 31 30 51 52 73 72
8 10 11 32 31 52 53 74 73
8 11 12 33 32 53 54 75 74
8 12 13 34 33 54 55 76 75
8 13 14 35 34 55 56 77 76
8 14 15 36 35 56 57 78 77
8 15 16 37 36 57 58 79 78
8 16 17 38 37 58 59 80 79
8 17 18 39 38 59 60 81 80
8 18 19 40 39 60 61 82 81
8 19 20 41 40 61 62 83 82
CELL_TYPES 20
12
12
12
12
12
12
12
12
12
12
12
12
12
12
12
12
12
12
12
12
POINT_DATA 84
SCALARS GLOBAL_ID int 1
LOOKUP_TABLE default
-1 
-1 
-1 
-1 
-1 
-1 
-1 
-1 
-1 
-1 
-1 
-1 
-1 
-1 
-1 
-1 
-1 
-1 
-1 
-1 
-1 
-1 
-1 
-1 
-1 
-1 
-1 
-1 
-1 
-1 
-1 
-1 
-1 
-1 
-1 
-1 
-1 
-1 
-1 
-1 
-1 
-1 
-1 
-1 
-1 
-1 
-1 
-1 
-1 
-1 
-1 
-1 
-1 
-1 
-1 
-1 
-1 
-1 
-1 
-1 
-1 
-1 
-1 
-1 
-1 
-1 
-1 
-1 
-1 
-1 
-1 
-1 
-1 
-1 
-1 
-1 
-1 
-1 
-1 
-1 
-1 
-1 
-1 
-1 
CELL_DATA 20
SCALARS GLOBAL_ID int 1
LOOKUP_TABLE default
-1 
-1 
-1 
-1 
-1 
-1 
-1 
-1 
-1 
-1 
-1 
-1 
-1 
-1 
-1 
-1 
-1 
-1 
-1 
-1 
SCALARS pressure double 1
LOOKUP_TABLE default
100 
92.66263907 
84.0644125 
74.7716835 
64.87912421 
54.44074639 
43.49330373 
32.06345592 
20.17078844 
7.829208105 
1.374434723 
1.242251355 
1.105678354 
0.9646189675 
0.8188782502 
0.6681214616 
0.5118078135 
0.349098272 
0.1788095881 
0 
SCALARS saturation double 1
LOOKUP_TABLE default
1 
0.7529300477 
0.7300852721 
0.7116768027 
0.6957949552 
0.6816004832 
0.6686058516 
0.6564820181 
0.6449807317 
0.6338941829 
0.6230282718 
0.6121790544 
0.6011049453 
0.589485316 
0.5768488275 
0.562435192 
0.5449040365 
0.5216676158 
0.4872705667 
0.4297703639 
SCALARS permeabilityx double 1
LOOKUP_TABLE default
0.01 
0.01 
0.01 
0.01 
0.01 
0.01 
0.01 
0.01 
0.01 
0.01 
1 
1 
1 
1 
1 
1 
1 
1 
1 
1 
