# vtk DataFile Version 3.0
MOAB 5.4.1
ASCII
DATASET UNSTRUCTURED_GRID
POINTS 84 double
0 0 0
1 0 0
2 0 0
3 0 0
4 0 0
5 0 0
6 0 0
7 0 0
8 0 0
9 0 0
10 0 0
11 0 0
12 0 0
13 0 0
14 0 0
15 0 0
16 0 0
17 0 0
18 0 0
19 0 0
20 0 0
0 1 0
1 1 0
2 1 0
3 1 0
4 1 0
5 1 0
6 1 0
7 1 0
8 1 0
9 1 0
10 1 0
11 1 0
12 1 0
13 1 0
14 1 0
15 1 0
16 1 0
17 1 0
18 1 0
19 1 0
20 1 0
0 0 1
1 0 1
2 0 1
3 0 1
4 0 1
5 0 1
6 0 1
7 0 1
8 0 1
9 0 1
10 0 1
11 0 1
12 0 1
13 0 1
14 0 1
15 0 1
16 0 1
17 0 1
18 0 1
19 0 1
20 0 1
0 1 1
1 1 1
2 1 1
3 1 1
4 1 1
5 1 1
6 1 1
7 1 1
8 1 1
9 1 1
10 1 1
11 1 1
12 1 1
13 1 1
14 1 1
15 1 1
16 1 1
17 1 1
18 1 1
19 1 1
20 1 1
CELLS 20 180
8 0 1 22 21 42 43 64 63
8 1 2 23 22 43 44 65 64
8 2 3 24 23 44 45 66 65
8 3 4 25 24 45 46 67 66
8 4 5 26 25 46 47 68 67
8 5 6 27 26 47 48 69 68
8 6 7 28 27 48 49 70 69
8 7 8 29 28 49 50 71 70
8 8 9 30 29 50 51 72 71
8 9 10 31 30 51 52 73 72
8 10 11 32 31 52 53 74 73
8 11 12 33 32 53 54 75 74
8 12 13 34 33 54 55 76 75
8 13 14 35 34 55 56 77 76
8 14 15 36 35 56 57 78 77
8 15 16 37 36 57 58 79 78
8 16 17 38 37 58 59 80 79
8 17 18 39 38 59 60 81 80
8 18 19 40 39 60 61 82 81
8 19 20 41 40 61 62 83 82
CELL_TYPES 20
12
12
12
12
12
12
12
12
12
12
12
12
12
12
12
12
12
12
12
12
POINT_DATA 84
SCALARS GLOBAL_ID int 1
LOOKUP_TABLE default
-1 
-1 
-1 
-1 
-1 
-1 
-1 
-1 
-1 
-1 
-1 
-1 
-1 
-1 
-1 
-1 
-1 
-1 
-1 
-1 
-1 
-1 
-1 
-1 
-1 
-1 
-1 
-1 
-1 
-1 
-1 
-1 
-1 
-1 
-1 
-1 
-1 
-1 
-1 
-1 
-1 
-1 
-1 
-1 
-1 
-1 
-1 
-1 
-1 
-1 
-1 
-1 
-1 
-1 
-1 
-1 
-1 
-1 
-1 
-1 
-1 
-1 
-1 
-1 
-1 
-1 
-1 
-1 
-1 
-1 
-1 
-1 
-1 
-1 
-1 
-1 
-1 
-1 
-1 
-1 
-1 
-1 
-1 
-1 
CELL_DATA 20
SCALARS GLOBAL_ID int 1
LOOKUP_TABLE default
-1 
-1 
-1 
-1 
-1 
-1 
-1 
-1 
-1 
-1 
-1 
-1 
-1 
-1 
-1 
-1 
-1 
-1 
-1 
-1 
SCALARS pressure double 1
LOOKUP_TABLE default
100 
92.87598056 
84.3957793 
75.17459838 
65.31547372 
54.87654235 
43.8965753 
32.40272122 
20.41362133 
7.940618008 
1.399457435 
1.265091229 
1.125743764 
0.9811314811 
0.8307677014 
0.6738737888 
0.5093296406 
0.3362040176 
0.1582091402 
0 
SCALARS saturation double 1
LOOKUP_TABLE default
1 
0.7483124489 
0.7236818537 
0.7039650885 
0.6869991791 
0.6718298199 
0.6578972655 
0.6448143909 
0.6322745469 
0.6199992207 
0.6076960506 
0.5950101446 
0.5814491041 
0.5662445674 
0.5480659998 
0.5243697658 
0.4898272325 
0.4328401655 
0.3357746959 
0.2315217383 
SCALARS permeabilityx double 1
LOOKUP_TABLE default
0.01 
0.01 
0.01 
0.01 
0.01 
0.01 
0.01 
0.01 
0.01 
0.01 
1 
1 
1 
1 
1 
1 
1 
1 
1 
1 
