# vtk DataFile Version 3.0
MOAB 5.4.1
ASCII
DATASET UNSTRUCTURED_GRID
POINTS 84 double
0 0 0
1 0 0
2 0 0
3 0 0
4 0 0
5 0 0
6 0 0
7 0 0
8 0 0
9 0 0
10 0 0
11 0 0
12 0 0
13 0 0
14 0 0
15 0 0
16 0 0
17 0 0
18 0 0
19 0 0
20 0 0
0 1 0
1 1 0
2 1 0
3 1 0
4 1 0
5 1 0
6 1 0
7 1 0
8 1 0
9 1 0
10 1 0
11 1 0
12 1 0
13 1 0
14 1 0
15 1 0
16 1 0
17 1 0
18 1 0
19 1 0
20 1 0
0 0 1
1 0 1
2 0 1
3 0 1
4 0 1
5 0 1
6 0 1
7 0 1
8 0 1
9 0 1
10 0 1
11 0 1
12 0 1
13 0 1
14 0 1
15 0 1
16 0 1
17 0 1
18 0 1
19 0 1
20 0 1
0 1 1
1 1 1
2 1 1
3 1 1
4 1 1
5 1 1
6 1 1
7 1 1
8 1 1
9 1 1
10 1 1
11 1 1
12 1 1
13 1 1
14 1 1
15 1 1
16 1 1
17 1 1
18 1 1
19 1 1
20 1 1
CELLS 20 180
8 0 1 22 21 42 43 64 63
8 1 2 23 22 43 44 65 64
8 2 3 24 23 44 45 66 65
8 3 4 25 24 45 46 67 66
8 4 5 26 25 46 47 68 67
8 5 6 27 26 47 48 69 68
8 6 7 28 27 48 49 70 69
8 7 8 29 28 49 50 71 70
8 8 9 30 29 50 51 72 71
8 9 10 31 30 51 52 73 72
8 10 11 32 31 52 53 74 73
8 11 12 33 32 53 54 75 74
8 12 13 34 33 54 55 76 75
8 13 14 35 34 55 56 77 76
8 14 15 36 35 56 57 78 77
8 15 16 37 36 57 58 79 78
8 16 17 38 37 58 59 80 79
8 17 18 39 38 59 60 81 80
8 18 19 40 39 60 61 82 81
8 19 20 41 40 61 62 83 82
CELL_TYPES 20
12
12
12
12
12
12
12
12
12
12
12
12
12
12
12
12
12
12
12
12
POINT_DATA 84
SCALARS GLOBAL_ID int 1
LOOKUP_TABLE default
-1 
-1 
-1 
-1 
-1 
-1 
-1 
-1 
-1 
-1 
-1 
-1 
-1 
-1 
-1 
-1 
-1 
-1 
-1 
-1 
-1 
-1 
-1 
-1 
-1 
-1 
-1 
-1 
-1 
-1 
-1 
-1 
-1 
-1 
-1 
-1 
-1 
-1 
-1 
-1 
-1 
-1 
-1 
-1 
-1 
-1 
-1 
-1 
-1 
-1 
-1 
-1 
-1 
-1 
-1 
-1 
-1 
-1 
-1 
-1 
-1 
-1 
-1 
-1 
-1 
-1 
-1 
-1 
-1 
-1 
-1 
-1 
-1 
-1 
-1 
-1 
-1 
-1 
-1 
-1 
-1 
-1 
-1 
-1 
CELL_DATA 20
SCALARS GLOBAL_ID int 1
LOOKUP_TABLE default
-1 
-1 
-1 
-1 
-1 
-1 
-1 
-1 
-1 
-1 
-1 
-1 
-1 
-1 
-1 
-1 
-1 
-1 
-1 
-1 
SCALARS pressure double 1
LOOKUP_TABLE default
100 
91.94937916 
82.95196892 
73.41933699 
63.41841447 
52.98811009 
42.15591289 
30.9429341 
19.36610701 
7.439343082 
1.245449597 
1.119510879 
0.9903644426 
0.8580747095 
0.7226915116 
0.5842499348 
0.4427693374 
0.2982513796 
0.1506767457 
0 
SCALARS saturation double 1
LOOKUP_TABLE default
1 
0.7669105594 
0.7498694828 
0.7357657343 
0.7234067768 
0.7122752831 
0.7020730068 
0.6926028062 
0.6837232026 
0.6753266414 
0.6673275154 
0.6596548308 
0.6522472812 
0.6450496061 
0.6380095797 
0.6310751759 
0.6241914946 
0.6172969657 
0.6103181136 
0.6031616532 
SCALARS permeabilityx double 1
LOOKUP_TABLE default
0.01 
0.01 
0.01 
0.01 
0.01 
0.01 
0.01 
0.01 
0.01 
0.01 
1 
1 
1 
1 
1 
1 
1 
1 
1 
1 
