# vtk DataFile Version 3.0
MOAB 5.4.1
ASCII
DATASET UNSTRUCTURED_GRID
POINTS 84 double
0 0 0
1 0 0
2 0 0
3 0 0
4 0 0
5 0 0
6 0 0
7 0 0
8 0 0
9 0 0
10 0 0
11 0 0
12 0 0
13 0 0
14 0 0
15 0 0
16 0 0
17 0 0
18 0 0
19 0 0
20 0 0
0 1 0
1 1 0
2 1 0
3 1 0
4 1 0
5 1 0
6 1 0
7 1 0
8 1 0
9 1 0
10 1 0
11 1 0
12 1 0
13 1 0
14 1 0
15 1 0
16 1 0
17 1 0
18 1 0
19 1 0
20 1 0
0 0 1
1 0 1
2 0 1
3 0 1
4 0 1
5 0 1
6 0 1
7 0 1
8 0 1
9 0 1
10 0 1
11 0 1
12 0 1
13 0 1
14 0 1
15 0 1
16 0 1
17 0 1
18 0 1
19 0 1
20 0 1
0 1 1
1 1 1
2 1 1
3 1 1
4 1 1
5 1 1
6 1 1
7 1 1
8 1 1
9 1 1
10 1 1
11 1 1
12 1 1
13 1 1
14 1 1
15 1 1
16 1 1
17 1 1
18 1 1
19 1 1
20 1 1
CELLS 20 180
8 0 1 22 21 42 43 64 63
8 1 2 23 22 43 44 65 64
8 2 3 24 23 44 45 66 65
8 3 4 25 24 45 46 67 66
8 4 5 26 25 46 47 68 67
8 5 6 27 26 47 48 69 68
8 6 7 28 27 48 49 70 69
8 7 8 29 28 49 50 71 70
8 8 9 30 29 50 51 72 71
8 9 10 31 30 51 52 73 72
8 10 11 32 31 52 53 74 73
8 11 12 33 32 53 54 75 74
8 12 13 34 33 54 55 76 75
8 13 14 35 34 55 56 77 76
8 14 15 36 35 56 57 78 77
8 15 16 37 36 57 58 79 78
8 16 17 38 37 58 59 80 79
8 17 18 39 38 59 60 81 80
8 18 19 40 39 60 61 82 81
8 19 20 41 40 61 62 83 82
CELL_TYPES 20
12
12
12
12
12
12
12
12
12
12
12
12
12
12
12
12
12
12
12
12
POINT_DATA 84
SCALARS GLOBAL_ID int 1
LOOKUP_TABLE default
-1 
-1 
-1 
-1 
-1 
-1 
-1 
-1 
-1 
-1 
-1 
-1 
-1 
-1 
-1 
-1 
-1 
-1 
-1 
-1 
-1 
-1 
-1 
-1 
-1 
-1 
-1 
-1 
-1 
-1 
-1 
-1 
-1 
-1 
-1 
-1 
-1 
-1 
-1 
-1 
-1 
-1 
-1 
-1 
-1 
-1 
-1 
-1 
-1 
-1 
-1 
-1 
-1 
-1 
-1 
-1 
-1 
-1 
-1 
-1 
-1 
-1 
-1 
-1 
-1 
-1 
-1 
-1 
-1 
-1 
-1 
-1 
-1 
-1 
-1 
-1 
-1 
-1 
-1 
-1 
-1 
-1 
-1 
-1 
CELL_DATA 20
SCALARS GLOBAL_ID int 1
LOOKUP_TABLE default
-1 
-1 
-1 
-1 
-1 
-1 
-1 
-1 
-1 
-1 
-1 
-1 
-1 
-1 
-1 
-1 
-1 
-1 
-1 
-1 
SCALARS pressure double 1
LOOKUP_TABLE default
100 
92.40948165 
83.66987054 
74.29130796 
64.35855447 
53.92043343 
43.0107523 
31.65472084 
19.87172695 
7.676732566 
1.315885387 
1.185999264 
1.052229173 
0.9145830064 
0.773025151 
0.627464896 
0.4777373482 
0.3235725286 
0.1645456776 
0 
SCALARS saturation double 1
LOOKUP_TABLE default
1 
0.7581196397 
0.7373535104 
0.7204731754 
0.7058448361 
0.6927531059 
0.6807845396 
0.6696641413 
0.6591909382 
0.6492061465 
0.6395744386 
0.6301707486 
0.620868797 
0.6115285408 
0.6019794371 
0.5919946006 
0.5812465601 
0.569224862 
0.5550701721 
0.5372092384 
SCALARS permeabilityx double 1
LOOKUP_TABLE default
0.01 
0.01 
0.01 
0.01 
0.01 
0.01 
0.01 
0.01 
0.01 
0.01 
1 
1 
1 
1 
1 
1 
1 
1 
1 
1 
