# vtk DataFile Version 3.0
MOAB 5.4.1
ASCII
DATASET UNSTRUCTURED_GRID
POINTS 1568 double
0 0 -0
50.37 0 -0
100.74 0 -0
151.11 0 -0
201.48 0 -0
251.85 0 -0
302.22 0 -0
352.59 0 -0
402.96 0 -0
453.33 0 -0
503.7 0 -0
554.07 0 -0
604.44 0 -0
654.81 0 -0
705.18 0 -0
755.55 0 -0
805.92 0 -0
856.29 0 -0
906.66 0 -0
957.03 0 -0
1007.4 0 -0
1057.77 0 -0
1108.14 0 -0
1158.51 0 -0
1208.88 0 -0
1259.25 0 -0
1309.62 0 -0
1359.99 0 -0
0 50.37 -0
50.37 50.37 -0
100.74 50.37 -0
151.11 50.37 -0
201.48 50.37 -0
251.85 50.37 -0
302.22 50.37 -0
352.59 50.37 -0
402.96 50.37 -0
453.33 50.37 -0
503.7 50.37 -0
554.07 50.37 -0
604.44 50.37 -0
654.81 50.37 -0
705.18 50.37 -0
755.55 50.37 -0
805.92 50.37 -0
856.29 50.37 -0
906.66 50.37 -0
957.03 50.37 -0
1007.4 50.37 -0
1057.77 50.37 -0
1108.14 50.37 -0
1158.51 50.37 -0
1208.88 50.37 -0
1259.25 50.37 -0
1309.62 50.37 -0
1359.99 50.37 -0
0 100.74 -0
50.37 100.74 -0
100.74 100.74 -0
151.11 100.74 -0
201.48 100.74 -0
251.85 100.74 -0
302.22 100.74 -0
352.59 100.74 -0
402.96 100.74 -0
453.33 100.74 -0
503.7 100.74 -0
554.07 100.74 -0
604.44 100.74 -0
654.81 100.74 -0
705.18 100.74 -0
755.55 100.74 -0
805.92 100.74 -0
856.29 100.74 -0
906.66 100.74 -0
957.03 100.74 -0
1007.4 100.74 -0
1057.77 100.74 -0
1108.14 100.74 -0
1158.51 100.74 -0
1208.88 100.74 -0
1259.25 100.74 -0
1309.62 100.74 -0
1359.99 100.74 -0
0 151.11 -0
50.37 151.11 -0
100.74 151.11 -0
151.11 151.11 -0
201.48 151.11 -0
251.85 151.11 -0
302.22 151.11 -0
352.59 151.11 -0
402.96 151.11 -0
453.33 151.11 -0
503.7 151.11 -0
554.07 151.11 -0
604.44 151.11 -0
654.81 151.11 -0
705.18 151.11 -0
755.55 151.11 -0
805.92 151.11 -0
856.29 151.11 -0
906.66 151.11 -0
957.03 151.11 -0
1007.4 151.11 -0
1057.77 151.11 -0
1108.14 151.11 -0
1158.51 151.11 -0
1208.88 151.11 -0
1259.25 151.11 -0
1309.62 151.11 -0
1359.99 151.11 -0
0 201.48 -0
50.37 201.48 -0
100.74 201.48 -0
151.11 201.48 -0
201.48 201.48 -0
251.85 201.48 -0
302.22 201.48 -0
352.59 201.48 -0
402.96 201.48 -0
453.33 201.48 -0
503.7 201.48 -0
554.07 201.48 -0
604.44 201.48 -0
654.81 201.48 -0
705.18 201.48 -0
755.55 201.48 -0
805.92 201.48 -0
856.29 201.48 -0
906.66 201.48 -0
957.03 201.48 -0
1007.4 201.48 -0
1057.77 201.48 -0
1108.14 201.48 -0
1158.51 201.48 -0
1208.88 201.48 -0
1259.25 201.48 -0
1309.62 201.48 -0
1359.99 201.48 -0
0 251.85 -0
50.37 251.85 -0
100.74 251.85 -0
151.11 251.85 -0
201.48 251.85 -0
251.85 251.85 -0
302.22 251.85 -0
352.59 251.85 -0
402.96 251.85 -0
453.33 251.85 -0
503.7 251.85 -0
554.07 251.85 -0
604.44 251.85 -0
654.81 251.85 -0
705.18 251.85 -0
755.55 251.85 -0
805.92 251.85 -0
856.29 251.85 -0
906.66 251.85 -0
957.03 251.85 -0
1007.4 251.85 -0
1057.77 251.85 -0
1108.14 251.85 -0
1158.51 251.85 -0
1208.88 251.85 -0
1259.25 251.85 -0
1309.62 251.85 -0
1359.99 251.85 -0
0 302.22 -0
50.37 302.22 -0
100.74 302.22 -0
151.11 302.22 -0
201.48 302.22 -0
251.85 302.22 -0
302.22 302.22 -0
352.59 302.22 -0
402.96 302.22 -0
453.33 302.22 -0
503.7 302.22 -0
554.07 302.22 -0
604.44 302.22 -0
654.81 302.22 -0
705.18 302.22 -0
755.55 302.22 -0
805.92 302.22 -0
856.29 302.22 -0
906.66 302.22 -0
957.03 302.22 -0
1007.4 302.22 -0
1057.77 302.22 -0
1108.14 302.22 -0
1158.51 302.22 -0
1208.88 302.22 -0
1259.25 302.22 -0
1309.62 302.22 -0
1359.99 302.22 -0
0 352.59 -0
50.37 352.59 -0
100.74 352.59 -0
151.11 352.59 -0
201.48 352.59 -0
251.85 352.59 -0
302.22 352.59 -0
352.59 352.59 -0
402.96 352.59 -0
453.33 352.59 -0
503.7 352.59 -0
554.07 352.59 -0
604.44 352.59 -0
654.81 352.59 -0
705.18 352.59 -0
755.55 352.59 -0
805.92 352.59 -0
856.29 352.59 -0
906.66 352.59 -0
957.03 352.59 -0
1007.4 352.59 -0
1057.77 352.59 -0
1108.14 352.59 -0
1158.51 352.59 -0
1208.88 352.59 -0
1259.25 352.59 -0
1309.62 352.59 -0
1359.99 352.59 -0
0 402.96 -0
50.37 402.96 -0
100.74 402.96 -0
151.11 402.96 -0
201.48 402.96 -0
251.85 402.96 -0
302.22 402.96 -0
352.59 402.96 -0
402.96 402.96 -0
453.33 402.96 -0
503.7 402.96 -0
554.07 402.96 -0
604.44 402.96 -0
654.81 402.96 -0
705.18 402.96 -0
755.55 402.96 -0
805.92 402.96 -0
856.29 402.96 -0
906.66 402.96 -0
957.03 402.96 -0
1007.4 402.96 -0
1057.77 402.96 -0
1108.14 402.96 -0
1158.51 402.96 -0
1208.88 402.96 -0
1259.25 402.96 -0
1309.62 402.96 -0
1359.99 402.96 -0
0 453.33 -0
50.37 453.33 -0
100.74 453.33 -0
151.11 453.33 -0
201.48 453.33 -0
251.85 453.33 -0
302.22 453.33 -0
352.59 453.33 -0
402.96 453.33 -0
453.33 453.33 -0
503.7 453.33 -0
554.07 453.33 -0
604.44 453.33 -0
654.81 453.33 -0
705.18 453.33 -0
755.55 453.33 -0
805.92 453.33 -0
856.29 453.33 -0
906.66 453.33 -0
957.03 453.33 -0
1007.4 453.33 -0
1057.77 453.33 -0
1108.14 453.33 -0
1158.51 453.33 -0
1208.88 453.33 -0
1259.25 453.33 -0
1309.62 453.33 -0
1359.99 453.33 -0
0 503.7 -0
50.37 503.7 -0
100.74 503.7 -0
151.11 503.7 -0
201.48 503.7 -0
251.85 503.7 -0
302.22 503.7 -0
352.59 503.7 -0
402.96 503.7 -0
453.33 503.7 -0
503.7 503.7 -0
554.07 503.7 -0
604.44 503.7 -0
654.81 503.7 -0
705.18 503.7 -0
755.55 503.7 -0
805.92 503.7 -0
856.29 503.7 -0
906.66 503.7 -0
957.03 503.7 -0
1007.4 503.7 -0
1057.77 503.7 -0
1108.14 503.7 -0
1158.51 503.7 -0
1208.88 503.7 -0
1259.25 503.7 -0
1309.62 503.7 -0
1359.99 503.7 -0
0 554.07 -0
50.37 554.07 -0
100.74 554.07 -0
151.11 554.07 -0
201.48 554.07 -0
251.85 554.07 -0
302.22 554.07 -0
352.59 554.07 -0
402.96 554.07 -0
453.33 554.07 -0
503.7 554.07 -0
554.07 554.07 -0
604.44 554.07 -0
654.81 554.07 -0
705.18 554.07 -0
755.55 554.07 -0
805.92 554.07 -0
856.29 554.07 -0
906.66 554.07 -0
957.03 554.07 -0
1007.4 554.07 -0
1057.77 554.07 -0
1108.14 554.07 -0
1158.51 554.07 -0
1208.88 554.07 -0
1259.25 554.07 -0
1309.62 554.07 -0
1359.99 554.07 -0
0 604.44 -0
50.37 604.44 -0
100.74 604.44 -0
151.11 604.44 -0
201.48 604.44 -0
251.85 604.44 -0
302.22 604.44 -0
352.59 604.44 -0
402.96 604.44 -0
453.33 604.44 -0
503.7 604.44 -0
554.07 604.44 -0
604.44 604.44 -0
654.81 604.44 -0
705.18 604.44 -0
755.55 604.44 -0
805.92 604.44 -0
856.29 604.44 -0
906.66 604.44 -0
957.03 604.44 -0
1007.4 604.44 -0
1057.77 604.44 -0
1108.14 604.44 -0
1158.51 604.44 -0
1208.88 604.44 -0
1259.25 604.44 -0
1309.62 604.44 -0
1359.99 604.44 -0
0 654.81 -0
50.37 654.81 -0
100.74 654.81 -0
151.11 654.81 -0
201.48 654.81 -0
251.85 654.81 -0
302.22 654.81 -0
352.59 654.81 -0
402.96 654.81 -0
453.33 654.81 -0
503.7 654.81 -0
554.07 654.81 -0
604.44 654.81 -0
654.81 654.81 -0
705.18 654.81 -0
755.55 654.81 -0
805.92 654.81 -0
856.29 654.81 -0
906.66 654.81 -0
957.03 654.81 -0
1007.4 654.81 -0
1057.77 654.81 -0
1108.14 654.81 -0
1158.51 654.81 -0
1208.88 654.81 -0
1259.25 654.81 -0
1309.62 654.81 -0
1359.99 654.81 -0
0 705.18 -0
50.37 705.18 -0
100.74 705.18 -0
151.11 705.18 -0
201.48 705.18 -0
251.85 705.18 -0
302.22 705.18 -0
352.59 705.18 -0
402.96 705.18 -0
453.33 705.18 -0
503.7 705.18 -0
554.07 705.18 -0
604.44 705.18 -0
654.81 705.18 -0
705.18 705.18 -0
755.55 705.18 -0
805.92 705.18 -0
856.29 705.18 -0
906.66 705.18 -0
957.03 705.18 -0
1007.4 705.18 -0
1057.77 705.18 -0
1108.14 705.18 -0
1158.51 705.18 -0
1208.88 705.18 -0
1259.25 705.18 -0
1309.62 705.18 -0
1359.99 705.18 -0
0 755.55 -0
50.37 755.55 -0
100.74 755.55 -0
151.11 755.55 -0
201.48 755.55 -0
251.85 755.55 -0
302.22 755.55 -0
352.59 755.55 -0
402.96 755.55 -0
453.33 755.55 -0
503.7 755.55 -0
554.07 755.55 -0
604.44 755.55 -0
654.81 755.55 -0
705.18 755.55 -0
755.55 755.55 -0
805.92 755.55 -0
856.29 755.55 -0
906.66 755.55 -0
957.03 755.55 -0
1007.4 755.55 -0
1057.77 755.55 -0
1108.14 755.55 -0
1158.51 755.55 -0
1208.88 755.55 -0
1259.25 755.55 -0
1309.62 755.55 -0
1359.99 755.55 -0
0 805.92 -0
50.37 805.92 -0
100.74 805.92 -0
151.11 805.92 -0
201.48 805.92 -0
251.85 805.92 -0
302.22 805.92 -0
352.59 805.92 -0
402.96 805.92 -0
453.33 805.92 -0
503.7 805.92 -0
554.07 805.92 -0
604.44 805.92 -0
654.81 805.92 -0
705.18 805.92 -0
755.55 805.92 -0
805.92 805.92 -0
856.29 805.92 -0
906.66 805.92 -0
957.03 805.92 -0
1007.4 805.92 -0
1057.77 805.92 -0
1108.14 805.92 -0
1158.51 805.92 -0
1208.88 805.92 -0
1259.25 805.92 -0
1309.62 805.92 -0
1359.99 805.92 -0
0 856.29 -0
50.37 856.29 -0
100.74 856.29 -0
151.11 856.29 -0
201.48 856.29 -0
251.85 856.29 -0
302.22 856.29 -0
352.59 856.29 -0
402.96 856.29 -0
453.33 856.29 -0
503.7 856.29 -0
554.07 856.29 -0
604.44 856.29 -0
654.81 856.29 -0
705.18 856.29 -0
755.55 856.29 -0
805.92 856.29 -0
856.29 856.29 -0
906.66 856.29 -0
957.03 856.29 -0
1007.4 856.29 -0
1057.77 856.29 -0
1108.14 856.29 -0
1158.51 856.29 -0
1208.88 856.29 -0
1259.25 856.29 -0
1309.62 856.29 -0
1359.99 856.29 -0
0 906.66 -0
50.37 906.66 -0
100.74 906.66 -0
151.11 906.66 -0
201.48 906.66 -0
251.85 906.66 -0
302.22 906.66 -0
352.59 906.66 -0
402.96 906.66 -0
453.33 906.66 -0
503.7 906.66 -0
554.07 906.66 -0
604.44 906.66 -0
654.81 906.66 -0
705.18 906.66 -0
755.55 906.66 -0
805.92 906.66 -0
856.29 906.66 -0
906.66 906.66 -0
957.03 906.66 -0
1007.4 906.66 -0
1057.77 906.66 -0
1108.14 906.66 -0
1158.51 906.66 -0
1208.88 906.66 -0
1259.25 906.66 -0
1309.62 906.66 -0
1359.99 906.66 -0
0 957.03 -0
50.37 957.03 -0
100.74 957.03 -0
151.11 957.03 -0
201.48 957.03 -0
251.85 957.03 -0
302.22 957.03 -0
352.59 957.03 -0
402.96 957.03 -0
453.33 957.03 -0
503.7 957.03 -0
554.07 957.03 -0
604.44 957.03 -0
654.81 957.03 -0
705.18 957.03 -0
755.55 957.03 -0
805.92 957.03 -0
856.29 957.03 -0
906.66 957.03 -0
957.03 957.03 -0
1007.4 957.03 -0
1057.77 957.03 -0
1108.14 957.03 -0
1158.51 957.03 -0
1208.88 957.03 -0
1259.25 957.03 -0
1309.62 957.03 -0
1359.99 957.03 -0
0 1007.4 -0
50.37 1007.4 -0
100.74 1007.4 -0
151.11 1007.4 -0
201.48 1007.4 -0
251.85 1007.4 -0
302.22 1007.4 -0
352.59 1007.4 -0
402.96 1007.4 -0
453.33 1007.4 -0
503.7 1007.4 -0
554.07 1007.4 -0
604.44 1007.4 -0
654.81 1007.4 -0
705.18 1007.4 -0
755.55 1007.4 -0
805.92 1007.4 -0
856.29 1007.4 -0
906.66 1007.4 -0
957.03 1007.4 -0
1007.4 1007.4 -0
1057.77 1007.4 -0
1108.14 1007.4 -0
1158.51 1007.4 -0
1208.88 1007.4 -0
1259.25 1007.4 -0
1309.62 1007.4 -0
1359.99 1007.4 -0
0 1057.77 -0
50.37 1057.77 -0
100.74 1057.77 -0
151.11 1057.77 -0
201.48 1057.77 -0
251.85 1057.77 -0
[...]
POINT_DATA 1568
SCALARS GLOBAL_ID int 1
LOOKUP_TABLE default
-1 
-1 
-1 
-1 
-1 
-1 
-1 
-1 
-1 
-1 
-1 
-1 
-1 
-1 
-1 
-1 
-1 
-1 
-1 
-1 
-1 
-1 
-1 
-1 
-1 
-1 
-1 
-1 
-1 
-1 
-1 
-1 
-1 
-1 
-1 
-1 
-1 
-1 
-1 
-1 
-1 
-1 
-1 
-1 
-1 
-1 
-1 
-1 
-1 
-1 
-1 
-1 
-1 
-1 
-1 
-1 
-1 
-1 
-1 
-1 
-1 
-1 
-1 
-1 
-1 
-1 
-1 
-1 
-1 
-1 
-1 
-1 
-1 
-1 
-1 
-1 
-1 
-1 
-1 
-1 
-1 
-1 
-1 
-1 
-1 
-1 
-1 
-1 
-1 
-1 
-1 
-1 
-1 
-1 
-1 
-1 
-1 
-1 
-1 
-1 
-1 
-1 
-1 
-1 
-1 
-1 
-1 
-1 
-1 
-1 
-1 
-1 
-1 
-1 
-1 
-1 
-1 
-1 
-1 
-1 
-1 
-1 
-1 
-1 
-1 
-1 
-1 
-1 
-1 
-1 
-1 
-1 
-1 
-1 
-1 
-1 
-1 
-1 
-1 
-1 
-1 
-1 
-1 
-1 
-1 
-1 
-1 
-1 
-1 
-1 
-1 
-1 
-1 
-1 
-1 
-1 
-1 
-1 
-1 
-1 
-1 
-1 
-1 
-1 
-1 
-1 
-1 
-1 
-1 
-1 
-1 
-1 
-1 
-1 
-1 
-1 
-1 
-1 
-1 
-1 
-1 
-1 
-1 
-1 
-1 
-1 
-1 
-1 
-1 
-1 
-1 
-1 
-1 
-1 
-1 
-1 
-1 
-1 
-1 
-1 
-1 
-1 
-1 
-1 
-1 
-1 
-1 
-1 
-1 
-1 
-1 
-1 
-1 
-1 
-1 
-1 
-1 
-1 
-1 
-1 
-1 
-1 
-1 
-1 
-1 
-1 
-1 
-1 
-1 
-1 
-1 
-1 
-1 
-1 
-1 
-1 
-1 
-1 
-1 
-1 
-1 
-1 
-1 
-1 
-1 
-1 
-1 
-1 
-1 
-1 
-1 
-1 
-1 
-1 
-1 
-1 
-1 
-1 
-1 
-1 
-1 
-1 
-1 
-1 
-1 
-1 
-1 
-1 
-1 
-1 
-1 
-1 
-1 
-1 
-1 
-1 
-1 
-1 
-1 
-1 
-1 
-1 
-1 
-1 
-1 
-1 
-1 
-1 
-1 
-1 
-1 
-1 
-1 
-1 
-1 
-1 
-1 
-1 
-1 
-1 
-1 
-1 
-1 
-1 
-1 
-1 
-1 
-1 
-1 
-1 
-1 
-1 
-1 
-1 
-1 
-1 
-1 
-1 
-1 
-1 
-1 
-1 
-1 
-1 
-1 
-1 
-1 
-1 
-1 
-1 
-1 
-1 
-1 
-1 
-1 
-1 
-1 
-1 
-1 
-1 
-1 
-1 
-1 
-1 
-1 
-1 
-1 
-1 
-1 
-1 
-1 
-1 
-1 
-1 
-1 
-1 
-1 
-1 
-1 
-1 
-1 
-1 
-1 
-1 
-1 
-1 
-1 
-1 
-1 
-1 
-1 
-1 
-1 
-1 
-1 
-1 
-1 
-1 
-1 
-1 
-1 
-1 
-1 
-1 
-1 
-1 
-1 
-1 
-1 
-1 
-1 
-1 
-1 
-1 
-1 
-1 
-1 
-1 
-1 
-1 
-1 
-1 
-1 
-1 
-1 
-1 
-1 
-1 
-1 
-1 
-1 
-1 
-1 
-1 
-1 
-1 
-1 
-1 
-1 
-1 
-1 
-1 
-1 
-1 
-1 
-1 
-1 
-1 
-1 
-1 
-1 
-1 
-1 
-1 
-1 
-1 
-1 
-1 
-1 
-1 
-1 
-1 
-1 
-1 
-1 
-1 
-1 
-1 
-1 
-1 
-1 
-1 
-1 
-1 
-1 
-1 
-1 
-1 
-1 
-1 
-1 
-1 
-1 
-1 
-1 
-1 
-1 
-1 
-1 
-1 
-1 
-1 
-1 
-1 
-1 
-1 
-1 
-1 
-1 
-1 
-1 
-1 
-1 
-1 
-1 
-1 
-1 
-1 
-1 
-1 
-1 
-1 
-1 
-1 
-1 
-1 
-1 
-1 
-1 
-1 
-1 
-1 
-1 
-1 
-1 
-1 
-1 
-1 
-1 
-1 
-1 
-1 
-1 
-1 
-1 
-1 
-1 
-1 
-1 
-1 
-1 
-1 
-1 
-1 
-1 
-1 
-1 
-1 
-1 
-1 
-1 
-1 
-1 
-1 
-1 
-1 
-1 
-1 
-1 
-1 
-1 
-1 
-1 
-1 
-1 
-1 
-1 
-1 
-1 
-1 
-1 
-1 
-1 
-1 
-1 
-1 
-1 
-1 
-1 
-1 
-1 
-1 
-1 
-1 
-1 
-1 
-1 
-1 
-1 
-1 
-1 
-1 
-1 
-1 
-1 
-1 
-1 
-1 
-1 
-1 
-1 
-1 
-1 
-1 
-1 
-1 
-1 
-1 
-1 
-1 
-1 
-1 
-1 
-1 
-1 
-1 
-1 
-1 
-1 
-1 
-1 
-1 
-1 
-1 
-1 
-1 
-1 
-1 
-1 
-1 
-1 
-1 
-1 
-1 
-1 
-1 
-1 
-1 
-1 
-1 
-1 
-1 
-1 
-1 
-1 
-1 
-1 
-1 
-1 
-1 
-1 
-1 
-1 
-1 
-1 
-1 
-1 
-1 
-1 
-1 
-1 
-1 
-1 
-1 
-1 
-1 
-1 
-1 
-1 
-1 
-1 
-1 
-1 
-1 
-1 
-1 
-1 
-1 
-1 
-1 
-1 
-1 
-1 
-1 
-1 
-1 
-1 
-1 
-1 
-1 
-1 
-1 
-1 
-1 
-1 
-1 
-1 
-1 
-1 
-1 
-1 
-1 
-1 
-1 
-1 
-1 
-1 
-1 
-1 
-1 
-1 
-1 
-1 
-1 
-1 
-1 
-1 
-1 
-1 
-1 
-1 
-1 
-1 
-1 
-1 
-1 
-1 
-1 
-1 
-1 
-1 
-1 
-1 
-1 
-1 
-1 
-1 
-1 
-1 
-1 
-1 
-1 
-1 
-1 
-1 
-1 
-1 
-1 
-1 
-1 
-1 
-1 
-1 
-1 
-1 
-1 
-1 
-1 
-1 
-1 
-1 
-1 
-1 
-1 
-1 
-1 
-1 
-1 
-1 
-1 
-1 
-1 
-1 
-1 
-1 
-1 
-1 
-1 
-1 
-1 
-1 
-1 
-1 
-1 
-1 
-1 
-1 
-1 
-1 
-1 
-1 
-1 
-1 
-1 
-1 
-1 
-1 
-1 
-1 
-1 
-1 
-1 
-1 
-1 
-1 
-1 
-1 
-1 
-1 
-1 
-1 
-1 
-1 
-1 
-1 
-1 
-1 
-1 
-1 
-1 
-1 
-1 
-1 
-1 
-1 
-1 
-1 
-1 
-1 
-1 
-1 
-1 
-1 
-1 
-1 
-1 
-1 
-1 
-1 
-1 
-1 
-1 
-1 
-1 
-1 
-1 
-1 
-1 
-1 
-1 
-1 
-1 
-1 
-1 
-1 
-1 
-1 
-1 
-1 
-1 
-1 
-1 
-1 
-1 
-1 
-1 
-1 
-1 
-1 
-1 
-1 
-1 
-1 
-1 
-1 
-1 
-1 
-1 
-1 
-1 
-1 
-1 
-1 
-1 
-1 
-1 
-1 
-1 
-1 
-1 
-1 
-1 
-1 
-1 
-1 
-1 
-1 
-1 
-1 
-1 
-1 
-1 
-1 
-1 
-1 
-1 
-1 
-1 
-1 
-1 
-1 
-1 
-1 
-1 
-1 
-1 
-1 
-1 
-1 
-1 
-1 
-1 
-1 
-1 
-1 
-1 
-1 
-1 
-1 
-1 
-1 
-1 
-1 
-1 
-1 
-1 
-1 
-1 
-1 
-1 
-1 
-1 
-1 
-1 
-1 
-1 
-1 
-1 
-1 
-1 
-1 
-1 
-1 
-1 
-1 
-1 
-1 
-1 
-1 
-1 
-1 
-1 
-1 
-1 
-1 
-1 
-1 
-1 
-1 
-1 
-1 
-1 
-1 
-1 
-1 
-1 
-1 
-1 
-1 
-1 
-1 
-1 
-1 
-1 
-1 
-1 
-1 
-1 
-1 
-1 
-1 
-1 
-1 
-1 
-1 
-1 
-1 
-1 
-1 
-1 
-1 
-1 
-1 
-1 
-1 
-1 
-1 
-1 
-1 
-1 
-1 
-1 
-1 
-1 
-1 
-1 
-1 
-1 
-1 
-1 
-1 
-1 
-1 
-1 
-1 
-1 
-1 
-1 
-1 
-1 
-1 
-1 
-1 
-1 
-1 
-1 
-1 
-1 
-1 
-1 
-1 
-1 
-1 
-1 
-1 
-1 
-1 
-1 
-1 
-1 
-1 
-1 
-1 
-1 
-1 
-1 
-1 
-1 
-1 
-1 
-1 
-1 
-1 
-1 
-1 
-1 
-1 
-1 
-1 
-1 
-1 
-1 
-1 
-1 
-1 
-1 
-1 
-1 
-1 
-1 
-1 
-1 
-1 
-1 
-1 
-1 
-1 
-1 
-1 
-1 
-1 
-1 
-1 
-1 
-1 
-1 
-1 
-1 
-1 
-1 
-1 
-1 
-1 
-1 
-1 
-1 
-1 
-1 
-1 
-1 
-1 
-1 
-1 
-1 
-1 
-1 
-1 
-1 
-1 
-1 
-1 
-1 
-1 
-1 
-1 
-1 
-1 
-1 
-1 
-1 
-1 
-1 
-1 
-1 
-1 
-1 
-1 
-1 
-1 
-1 
-1 
-1 
-1 
-1 
-1 
-1 
-1 
-1 
-1 
-1 
-1 
-1 
-1 
-1 
-1 
-1 
-1 
-1 
-1 
-1 
-1 
-1 
-1 
-1 
-1 
-1 
-1 
-1 
-1 
-1 
-1 
-1 
-1 
-1 
-1 
-1 
-1 
-1 
-1 
-1 
-1 
-1 
-1 
-1 
-1 
-1 
-1 
-1 
-1 
-1 
-1 
-1 
-1 
-1 
-1 
-1 
-1 
-1 
-1 
-1 
-1 
-1 
-1 
-1 
-1 
-1 
-1 
-1 
-1 
-1 
-1 
-1 
-1 
-1 
-1 
-1 
-1 
-1 
-1 
-1 
-1 
-1 
-1 
-1 
-1 
-1 
-1 
-1 
-1 
-1 
-1 
-1 
-1 
-1 
-1 
-1 
-1 
-1 
-1 
-1 
-1 
-1 
-1 
-1 
-1 
-1 
-1 
-1 
-1 
-1 
-1 
-1 
-1 
-1 
-1 
-1 
-1 
-1 
-1 
-1 
-1 
-1 
-1 
-1 
-1 
-1 
-1 
-1 
-1 
-1 
-1 
-1 
-1 
-1 
-1 
-1 
-1 
-1 
-1 
-1 
-1 
-1 
-1 
-1 
-1 
-1 
-1 
-1 
-1 
-1 
-1 
-1 
-1 
-1 
-1 
-1 
-1 
-1 
-1 
-1 
-1 
-1 
-1 
-1 
-1 
-1 
-1 
-1 
-1 
-1 
-1 
-1 
-1 
-1 
-1 
-1 
-1 
-1 
-1 
-1 
-1 
-1 
-1 
-1 
-1 
-1 
-1 
-1 
-1 
-1 
-1 
-1 
-1 
-1 
-1 
-1 
-1 
-1 
-1 
-1 
-1 
-1 
-1 
-1 
-1 
-1 
-1 
-1 
-1 
-1 
-1 
-1 
-1 
-1 
-1 
-1 
-1 
-1 
-1 
-1 
-1 
-1 
-1 
-1 
-1 
-1 
-1 
-1 
-1 
-1 
-1 
-1 
-1 
-1 
-1 
-1 
-1 
-1 
-1 
-1 
-1 
-1 
-1 
-1 
-1 
-1 
-1 
-1 
-1 
-1 
-1 
-1 
-1 
-1 
-1 
-1 
-1 
-1 
-1 
-1 
-1 
-1 
-1 
-1 
-1 
-1 
-1 
-1 
-1 
-1 
-1 
-1 
-1 
-1 
-1 
-1 
-1 
-1 
-1 
-1 
-1 
-1 
-1 
-1 
-1 
-1 
-1 
-1 
-1 
-1 
-1 
-1 
-1 
-1 
-1 
-1 
-1 
-1 
-1 
-1 
-1 
-1 
-1 
-1 
-1 
-1 
-1 
-1 
-1 
-1 
-1 
-1 
-1 
-1 
-1 
-1 
-1 
-1 
-1 
-1 
-1 
-1 
-1 
-1 
-1 
-1 
-1 
-1 
-1 
-1 
-1 
-1 
-1 
-1 
-1 
-1 
-1 
-1 
-1 
-1 
-1 
-1 
-1 
-1 
-1 
-1 
-1 
-1 
-1 
-1 
-1 
-1 
-1 
-1 
-1 
-1 
-1 
-1 
-1 
-1 
-1 
-1 
-1 
-1 
-1 
-1 
-1 
-1 
-1 
-1 
-1 
-1 
-1 
-1 
-1 
-1 
-1 
-1 
-1 
-1 
-1 
-1 
-1 
-1 
-1 
-1 
-1 
-1 
-1 
-1 
-1 
-1 
-1 
-1 
-1 
-1 
-1 
-1 
-1 
-1 
-1 
-1 
-1 
-1 
-1 
-1 
-1 
-1 
-1 
-1 
-1 
-1 
-1 
-1 
-1 
-1 
-1 
-1 
-1 
-1 
-1 
-1 
-1 
-1 
-1 
-1 
-1 
-1 
-1 
-1 
-1 
-1 
-1 
-1 
-1 
-1 
-1 
-1 
-1 
-1 
-1 
-1 
-1 
-1 
-1 
-1 
-1 
-1 
CELL_DATA 729
SCALARS GLOBAL_ID int 1
LOOKUP_TABLE default
-1 
-1 
-1 
-1 
-1 
-1 
-1 
-1 
-1 
-1 
-1 
-1 
-1 
-1 
-1 
-1 
-1 
-1 
-1 
-1 
-1 
-1 
-1 
-1 
-1 
-1 
-1 
-1 
-1 
-1 
-1 
-1 
-1 
-1 
-1 
-1 
-1 
-1 
-1 
-1 
-1 
-1 
-1 
-1 
-1 
-1 
-1 
-1 
-1 
-1 
-1 
-1 
-1 
-1 
-1 
-1 
-1 
-1 
-1 
-1 
-1 
-1 
-1 
-1 
-1 
-1 
-1 
-1 
-1 
-1 
-1 
-1 
-1 
-1 
-1 
-1 
-1 
-1 
-1 
-1 
-1 
-1 
-1 
-1 
-1 
-1 
-1 
-1 
-1 
-1 
-1 
-1 
-1 
-1 
-1 
-1 
-1 
-1 
-1 
-1 
-1 
-1 
-1 
-1 
-1 
-1 
-1 
-1 
-1 
-1 
-1 
-1 
-1 
-1 
-1 
-1 
-1 
-1 
-1 
-1 
-1 
-1 
-1 
-1 
-1 
-1 
-1 
-1 
-1 
-1 
-1 
-1 
-1 
-1 
-1 
-1 
-1 
-1 
-1 
-1 
-1 
-1 
-1 
-1 
-1 
-1 
-1 
-1 
-1 
-1 
-1 
-1 
-1 
-1 
-1 
-1 
-1 
-1 
-1 
-1 
-1 
-1 
-1 
-1 
-1 
-1 
-1 
-1 
-1 
-1 
-1 
-1 
-1 
-1 
-1 
-1 
-1 
-1 
-1 
-1 
-1 
-1 
-1 
-1 
-1 
-1 
-1 
-1 
-1 
-1 
-1 
-1 
-1 
-1 
-1 
-1 
-1 
-1 
-1 
-1 
-1 
-1 
-1 
-1 
-1 
-1 
-1 
-1 
-1 
-1 
-1 
-1 
-1 
-1 
-1 
-1 
-1 
-1 
-1 
-1 
-1 
-1 
-1 
-1 
-1 
-1 
-1 
-1 
-1 
-1 
-1 
-1 
-1 
-1 
-1 
-1 
-1 
-1 
-1 
-1 
-1 
-1 
-1 
-1 
-1 
-1 
-1 
-1 
-1 
-1 
-1 
-1 
-1 
-1 
-1 
-1 
-1 
-1 
-1 
-1 
-1 
-1 
-1 
-1 
-1 
-1 
-1 
-1 
-1 
-1 
-1 
-1 
-1 
-1 
-1 
-1 
-1 
-1 
-1 
-1 
-1 
-1 
-1 
-1 
-1 
-1 
-1 
-1 
-1 
-1 
-1 
-1 
-1 
-1 
-1 
-1 
-1 
-1 
-1 
-1 
-1 
-1 
-1 
-1 
-1 
-1 
-1 
-1 
-1 
-1 
-1 
-1 
-1 
-1 
-1 
-1 
-1 
-1 
-1 
-1 
-1 
-1 
-1 
-1 
-1 
-1 
-1 
-1 
-1 
-1 
-1 
-1 
-1 
-1 
-1 
-1 
-1 
-1 
-1 
-1 
-1 
-1 
-1 
-1 
-1 
-1 
-1 
-1 
-1 
-1 
-1 
-1 
-1 
-1 
-1 
-1 
-1 
-1 
-1 
-1 
-1 
-1 
-1 
-1 
-1 
-1 
-1 
-1 
-1 
-1 
-1 
-1 
-1 
-1 
-1 
-1 
-1 
-1 
-1 
-1 
-1 
-1 
-1 
-1 
-1 
-1 
-1 
-1 
-1 
-1 
-1 
-1 
-1 
-1 
-1 
-1 
-1 
-1 
-1 
-1 
-1 
-1 
-1 
-1 
-1 
-1 
-1 
-1 
-1 
-1 
-1 
-1 
-1 
-1 
-1 
-1 
-1 
-1 
-1 
-1 
-1 
-1 
-1 
-1 
-1 
-1 
-1 
-1 
-1 
-1 
-1 
-1 
-1 
-1 
-1 
-1 
-1 
-1 
-1 
-1 
-1 
-1 
-1 
-1 
-1 
-1 
-1 
-1 
-1 
-1 
-1 
-1 
-1 
-1 
-1 
-1 
-1 
-1 
-1 
-1 
-1 
-1 
-1 
-1 
-1 
-1 
-1 
-1 
-1 
-1 
-1 
-1 
-1 
-1 
-1 
-1 
-1 
-1 
-1 
-1 
-1 
-1 
-1 
-1 
-1 
-1 
-1 
-1 
-1 
-1 
-1 
-1 
-1 
-1 
-1 
-1 
-1 
-1 
-1 
-1 
-1 
-1 
-1 
-1 
-1 
-1 
-1 
-1 
-1 
-1 
-1 
-1 
-1 
-1 
-1 
-1 
-1 
-1 
-1 
-1 
-1 
-1 
-1 
-1 
-1 
-1 
-1 
-1 
-1 
-1 
-1 
-1 
-1 
-1 
-1 
-1 
-1 
-1 
-1 
-1 
-1 
-1 
-1 
-1 
-1 
-1 
-1 
-1 
-1 
-1 
-1 
-1 
-1 
-1 
-1 
-1 
-1 
-1 
-1 
-1 
-1 
-1 
-1 
-1 
-1 
-1 
-1 
-1 
-1 
-1 
-1 
-1 
-1 
-1 
-1 
-1 
-1 
-1 
-1 
-1 
-1 
-1 
-1 
-1 
-1 
-1 
-1 
-1 
-1 
-1 
-1 
-1 
-1 
-1 
-1 
-1 
-1 
-1 
-1 
-1 
-1 
-1 
-1 
-1 
-1 
-1 
-1 
-1 
-1 
-1 
-1 
-1 
-1 
-1 
-1 
-1 
-1 
-1 
-1 
-1 
-1 
-1 
-1 
-1 
-1 
-1 
-1 
-1 
-1 
-1 
-1 
-1 
-1 
-1 
-1 
-1 
-1 
-1 
-1 
-1 
-1 
-1 
-1 
-1 
-1 
-1 
-1 
-1 
-1 
-1 
-1 
-1 
-1 
-1 
-1 
-1 
-1 
-1 
-1 
-1 
-1 
-1 
-1 
-1 
-1 
-1 
-1 
-1 
-1 
-1 
-1 
-1 
-1 
-1 
-1 
-1 
-1 
-1 
-1 
-1 
-1 
-1 
-1 
-1 
-1 
-1 
-1 
-1 
-1 
-1 
-1 
-1 
-1 
-1 
-1 
-1 
-1 
-1 
-1 
-1 
-1 
-1 
-1 
-1 
-1 
-1 
-1 
-1 
-1 
-1 
-1 
-1 
-1 
-1 
-1 
-1 
-1 
-1 
-1 
-1 
-1 
-1 
-1 
-1 
-1 
-1 
-1 
-1 
-1 
SCALARS P double 1
LOOKUP_TABLE default
7666 
7176 
6884 
6699 
6561 
6450 
6355 
6273 
6200 
6134 
6074 
6019 
5968 
5922 
5879 
5839 
5802 
5767 
5734 
5703 
5674 
5647 
5622 
5599 
5579 
5563 
5559 
7176 
6976 
6775 
6650 
6534 
6432 
6342 
6263 
6192 
6127 
6068 
6014 
5964 
5917 
5875 
5835 
5798 
5764 
5731 
5700 
5671 
5644 
5618 
5596 
5575 
5560 
5555 
6884 
6775 
6682 
6589 
6491 
6401 
6319 
6244 
6176 
6114 
6057 
6004 
5955 
5909 
5867 
5828 
5792 
5757 
5724 
5694 
5664 
5637 
5612 
5589 
5568 
5553 
5549 
6699 
6650 
6589 
6514 
6439 
6360 
6286 
6218 
6154 
6095 
6041 
5990 
5942 
5898 
5856 
5818 
5782 
5747 
5715 
5684 
5655 
5627 
5602 
5579 
5558 
5543 
5539 
6561 
6533 
6491 
6439 
6376 
6313 
6248 
6186 
6127 
6072 
6020 
5971 
5925 
5882 
5842 
5804 
5768 
5734 
5702 
5671 
5642 
5614 
5589 
5566 
5544 
5529 
5525 
6450 
6432 
6400 
6360 
6313 
6260 
6206 
6150 
6096 
6045 
5996 
5949 
5905 
5864 
5825 
5787 
5752 
5718 
5686 
5655 
5626 
5598 
5572 
5549 
5527 
5513 
5509 
6355 
6342 
6318 
6286 
6248 
6206 
6158 
6111 
6062 
6014 
5968 
5924 
5882 
5842 
5804 
5768 
5733 
5700 
5667 
5636 
5607 
5579 
5553 
5529 
5507 
5493 
5489 
6272 
6262 
6244 
6217 
6186 
6150 
6111 
6068 
6025 
5981 
5938 
5896 
5856 
5818 
5781 
5746 
5711 
5678 
5646 
5615 
5585 
5557 
5530 
5506 
5484 
5470 
5466 
6199 
6191 
6175 
6154 
6127 
6096 
6062 
6025 
5986 
5947 
5906 
5867 
5828 
5792 
5756 
5721 
5687 
5654 
5622 
5591 
5560 
5532 
5505 
5480 
5457 
5444 
5441 
6133 
6126 
6113 
6094 
6071 
6044 
6014 
5981 
5947 
5910 
5873 
5836 
5799 
5763 
5728 
5694 
5660 
5627 
5595 
5564 
5533 
5504 
5477 
5451 
5427 
5415 
5412 
6072 
6067 
6055 
6039 
6019 
5995 
5967 
5938 
5906 
5873 
5838 
5803 
5768 
5733 
5699 
5665 
5632 
5599 
5566 
5534 
5504 
5474 
5446 
5419 
5394 
5383 
5380 
6017 
6012 
6002 
5988 
5970 
5948 
5923 
5896 
5866 
5835 
5803 
5769 
5735 
5701 
5668 
5635 
5601 
5568 
5535 
5503 
5471 
5441 
5412 
5385 
5359 
5349 
5346 
5966 
5962 
5953 
5940 
5923 
5903 
5880 
5855 
5827 
5798 
5767 
5735 
5702 
5669 
5636 
5602 
5569 
5536 
5502 
5469 
5437 
5406 
5376 
5348 
5321 
5312 
5309 
5919 
5915 
5907 
5895 
5880 
5862 
5840 
5816 
5790 
5762 
5732 
5701 
5669 
5636 
5602 
5569 
5535 
5501 
5468 
5434 
5401 
5368 
5338 
5308 
5281 
5272 
5269 
5876 
5872 
5865 
5854 
5839 
5822 
5802 
5779 
5754 
5727 
5698 
5667 
5635 
5602 
5568 
5534 
5500 
5466 
5431 
5396 
5362 
5329 
5297 
5265 
5237 
5229 
5226 
5836 
5832 
5825 
5815 
5801 
5785 
5765 
5743 
5719 
5692 
5663 
5633 
5601 
5568 
5534 
5499 
5464 
5429 
5393 
5357 
5322 
5287 
5253 
5219 
5191 
5183 
5180 
5798 
5795 
5788 
5778 
5765 
5749 
5730 
5708 
5684 
5658 
5630 
5599 
5568 
5534 
5500 
5464 
5427 
5390 
5354 
5317 
5279 
5243 
5207 
5171 
5143 
5134 
5131 
5763 
5760 
5753 
5743 
5730 
5715 
5696 
5675 
5651 
5625 
5596 
5566 
5534 
5500 
5465 
5428 
5390 
5352 
5313 
5274 
5235 
5197 
5159 
5120 
5092 
5082 
5078 
5730 
5726 
5720 
5710 
5697 
5682 
5663 
5642 
5618 
5592 
5563 
5532 
5500 
5466 
5430 
5392 
5353 
5313 
5272 
5231 
5190 
5149 
5108 
5067 
5037 
5027 
5022 
5698 
5695 
5688 
5679 
5666 
5650 
5632 
5610 
5586 
5560 
5531 
5499 
5466 
5431 
5394 
5356 
5315 
5274 
5230 
5187 
5143 
5100 
5056 
5012 
4980 
4967 
4961 
5668 
5665 
5658 
5649 
5636 
5620 
5601 
5580 
5555 
5528 
5499 
5467 
5433 
5397 
5359 
5319 
5277 
5234 
5189 
5142 
5096 
5049 
5003 
4957 
4919 
4902 
4894 
5640 
5637 
5630 
5620 
5607 
5591 
5572 
5550 
5526 
5498 
5468 
5436 
5401 
5364 
5324 
5283 
5240 
5194 
5148 
5099 
5049 
4999 
4948 
4899 
4854 
4830 
4819 
5614 
5610 
5604 
5594 
5581 
5564 
5545 
5523 
5498 
5470 
5440 
5406 
5370 
5332 
5291 
5248 
5202 
5155 
5106 
5056 
5004 
4948 
4893 
4836 
4784 
4750 
4734 
5590 
5587 
5580 
5570 
5556 
5540 
5520 
5497 
5472 
5443 
5412 
5378 
5340 
5300 
5257 
5213 
5166 
5116 
5065 
5012 
4958 
4900 
4837 
4771 
4705 
4660 
4634 
5568 
5565 
5558 
5548 
5534 
5517 
5497 
5473 
5447 
5419 
5387 
5352 
5315 
5276 
5234 
5190 
5143 
5093 
5040 
4983 
4922 
4857 
4785 
4706 
4630 
4568 
4507 
5554 
5551 
5544 
5534 
5521 
5504 
5485 
5463 
5437 
5409 
5378 
5344 
5308 
5269 
5227 
5183 
5135 
5084 
5029 
4970 
4905 
4833 
4752 
4662 
4569 
4444 
4328 
5550 
5547 
5540 
5530 
5517 
5501 
5482 
5460 
5434 
5406 
5375 
5342 
5305 
5266 
5224 
5179 
5131 
5080 
5024 
4963 
4896 
4821 
4736 
4635 
4508 
4329 
3927 
SCALARS So double 1
LOOKUP_TABLE default
0.2844 
0.2849 
0.2856 
0.2868 
0.2881 
0.2894 
0.2907 
0.292 
0.2933 
0.2947 
0.2961 
0.2975 
0.299 
0.3008 
0.3053 
0.3136 
0.325 
0.3386 
0.3535 
0.369 
0.3848 
0.401 
0.4271 
0.4849 
0.6201 
0.8226 
0.8775 
0.2849 
0.2852 
0.2859 
0.2874 
0.2886 
0.2898 
0.291 
0.2923 
0.2936 
0.2949 
0.2963 
0.2977 
0.2992 
0.3011 
0.3061 
0.3147 
0.3264 
0.34 
0.3548 
0.3701 
0.3857 
0.4017 
0.4281 
0.4865 
0.6236 
0.8247 
0.8776 
0.2856 
0.2859 
0.2861 
0.2873 
0.2889 
0.2901 
0.2913 
0.2926 
0.2939 
0.2952 
0.2966 
0.298 
0.2995 
0.3016 
0.3072 
0.3163 
0.3282 
0.3418 
0.3564 
0.3715 
0.3867 
0.4025 
0.4294 
0.4887 
0.6287 
0.828 
0.8779 
0.2868 
0.2874 
0.2873 
0.2875 
0.2887 
0.2904 
0.2917 
0.293 
0.2943 
0.2956 
0.2969 
0.2983 
0.2998 
0.3024 
0.3086 
0.3183 
0.3304 
0.344 
0.3584 
0.3731 
0.388 
0.4035 
0.431 
0.4915 
0.6354 
0.8322 
0.8781 
0.2881 
0.2886 
0.2889 
0.2887 
0.2889 
0.2902 
0.292 
0.2933 
0.2946 
0.296 
0.2973 
0.2987 
0.3002 
0.3035 
0.3105 
0.3206 
0.3329 
0.3465 
0.3606 
0.375 
0.3895 
0.4047 
0.433 
0.495 
0.6439 
0.837 
0.8784 
0.2894 
0.2898 
0.2901 
0.2904 
0.2902 
0.2903 
0.2917 
0.2936 
0.295 
0.2963 
0.2977 
0.2991 
0.3008 
0.305 
0.3128 
0.3234 
0.3358 
0.3493 
0.3631 
0.3771 
0.391 
0.4061 
0.4353 
0.4991 
0.6541 
0.8423 
0.8787 
0.2907 
0.291 
0.2914 
0.2917 
0.292 
0.2917 
0.2919 
0.2933 
0.2952 
0.2967 
0.2981 
0.2995 
0.3016 
0.3069 
0.3155 
0.3265 
0.339 
0.3523 
0.3658 
0.3793 
0.3927 
0.4077 
0.4381 
0.5041 
0.6662 
0.8479 
0.879 
0.292 
0.2923 
0.2926 
0.293 
0.2933 
0.2936 
0.2933 
0.2935 
0.295 
0.2969 
0.2985 
0.2999 
0.3027 
0.309 
0.3184 
0.3297 
0.3423 
0.3554 
0.3685 
0.3816 
0.3945 
0.4094 
0.4412 
0.51 
0.6802 
0.8533 
0.8793 
0.2933 
0.2936 
0.2939 
0.2943 
0.2946 
0.295 
0.2952 
0.295 
0.2951 
0.2967 
0.2987 
0.3003 
0.304 
0.3113 
0.3213 
0.333 
0.3457 
0.3586 
0.3713 
0.3839 
0.3962 
0.4115 
0.4448 
0.517 
0.696 
0.8585 
0.8795 
0.2947 
0.2949 
0.2952 
0.2956 
0.296 
0.2963 
0.2967 
0.2969 
0.2967 
0.2968 
0.2984 
0.3006 
0.3051 
0.3132 
0.3239 
0.3361 
0.3489 
0.3616 
0.3741 
0.3862 
0.398 
0.4138 
0.4489 
0.5253 
0.7135 
0.8631 
0.8796 
0.2961 
0.2963 
0.2966 
0.2969 
0.2973 
0.2977 
0.2981 
0.2985 
0.2987 
0.2984 
0.2985 
0.3001 
0.3051 
0.3142 
0.3259 
0.3386 
0.3517 
0.3645 
0.3767 
0.3884 
0.3997 
0.4165 
0.4535 
0.535 
0.7323 
0.867 
0.8797 
0.2975 
0.2977 
0.298 
0.2983 
0.2987 
0.2991 
0.2995 
0.2999 
0.3003 
0.3006 
0.3001 
0.3003 
0.3033 
0.3137 
0.3266 
0.3403 
0.3539 
0.3669 
0.3791 
0.3905 
0.4014 
0.4195 
0.4586 
0.5462 
0.7517 
0.8702 
0.8798 
0.299 
0.2992 
0.2995 
0.2998 
0.3002 
0.3007 
0.3016 
0.3027 
0.304 
0.305 
0.3051 
0.3033 
0.3048 
0.3109 
0.3256 
0.3407 
0.3553 
0.3688 
0.3812 
0.3924 
0.4033 
0.4228 
0.4642 
0.5591 
0.7707 
0.8727 
0.8799 
0.3008 
0.3011 
0.3016 
0.3024 
0.3035 
0.3049 
0.3068 
0.3089 
0.3111 
0.313 
0.3141 
0.3135 
0.3108 
0.3136 
0.3221 
0.3392 
0.3553 
0.3698 
0.3827 
0.3941 
0.4053 
0.4264 
0.4704 
0.5736 
0.7886 
0.8747 
0.8799 
0.3052 
0.306 
0.307 
0.3085 
0.3104 
0.3127 
0.3153 
0.3182 
0.3211 
0.3237 
0.3256 
0.3263 
0.3253 
0.322 
0.3256 
0.3354 
0.3535 
0.3696 
0.3836 
0.3954 
0.4073 
0.4303 
0.477 
0.5896 
0.8045 
0.8761 
0.8799 
0.3134 
0.3145 
0.3161 
0.318 
0.3204 
0.3232 
0.3262 
0.3295 
0.3328 
0.3358 
0.3383 
0.34 
0.3403 
0.3389 
0.3352 
0.3392 
0.3495 
0.3678 
0.3834 
0.3963 
0.4093 
0.4342 
0.4839 
0.6069 
0.8181 
0.877 
0.8799 
0.3247 
0.3261 
0.3279 
0.33 
0.3326 
0.3355 
0.3387 
0.342 
0.3453 
0.3485 
0.3513 
0.3536 
0.3549 
0.3549 
0.3532 
0.3494 
0.3535 
0.3638 
0.3817 
0.3964 
0.411 
0.4381 
0.4909 
0.6243 
0.8284 
0.8776 
0.8799 
0.3382 
0.3396 
0.3414 
0.3436 
0.3461 
0.3489 
0.3519 
0.355 
0.3582 
0.3612 
0.3641 
0.3665 
0.3684 
0.3694 
0.3692 
0.3674 
0.3636 
0.3677 
0.3778 
0.3953 
0.412 
0.4412 
0.4974 
0.6395 
0.8351 
0.8778 
0.8799 
0.3541 
0.3554 
0.357 
0.359 
0.3612 
0.3637 
0.3664 
0.3691 
0.3719 
0.3747 
0.3773 
0.3797 
0.3818 
0.3833 
0.3842 
0.3841 
0.3826 
0.3785 
0.3823 
0.3924 
0.4121 
0.4447 
0.5062 
0.6596 
0.8422 
0.8781 
0.8799 
0.3706 
0.3717 
0.3731 
0.3747 
0.3766 
0.3786 
0.3808 
0.3831 
0.3855 
0.3878 
0.39 
0.3921 
0.3941 
0.3958 
0.3972 
0.3982 
0.3986 
0.3976 
0.3934 
0.3966 
0.4066 
0.4432 
0.5109 
0.669 
0.8424 
0.8777 
0.8799 
0.3874 
0.3883 
0.3894 
0.3906 
0.3921 
0.3936 
0.3953 
0.397 
0.3988 
0.4006 
0.4025 
0.4046 
0.4068 
0.4092 
0.4118 
0.4143 
0.4166 
0.4179 
0.4166 
0.4084 
0.4111 
0.431 
0.5052 
0.6601 
0.8337 
0.8764 
0.8798 
0.4052 
0.4059 
0.4069 
0.408 
0.4094 
0.411 
0.413 
0.4152 
0.4178 
0.4207 
0.4241 
0.4278 
0.4319 
0.4364 
0.4411 
0.4461 
0.451 
0.455 
0.4566 
0.4521 
0.4346 
0.4403 
0.4799 
0.6265 
0.8114 
0.8729 
0.8796 
0.4373 
0.4385 
0.44 
0.442 
0.4445 
0.4474 
0.4508 
0.4547 
0.4593 
0.4645 
0.4703 
0.4768 
0.484 
0.492 
0.5006 
0.5101 
0.5199 
0.5291 
0.5356 
0.5353 
0.522 
0.4868 
0.4951 
0.5657 
0.7687 
0.8651 
0.8791 
0.5069 
0.5089 
0.5118 
0.5155 
0.5201 
0.5259 
0.5329 
0.5413 
0.5513 
0.5631 
0.5769 
0.5928 
0.6112 
0.6318 
0.6535 
0.6749 
0.6944 
0.7097 
0.7176 
0.7131 
0.6905 
0.6444 
0.5725 
0.5868 
0.7033 
0.8523 
0.8743 
0.6704 
0.6745 
0.6805 
0.6885 
0.6984 
0.7102 
0.7239 
0.7392 
0.7557 
0.7727 
0.7897 
0.8058 
0.8207 
0.8334 
0.8436 
0.8511 
0.8561 
0.8586 
0.8582 
0.8539 
0.8426 
0.8186 
0.7746 
0.7058 
0.7554 
0.8358 
0.8725 
0.8469 
0.8484 
0.8508 
0.8537 
0.8569 
0.8603 
0.8637 
0.8669 
0.8698 
0.8724 
0.8744 
0.8761 
0.8772 
0.878 
0.8785 
0.8788 
0.879 
0.879 
0.8789 
0.8783 
0.8769 
0.8735 
0.8658 
0.853 
0.8361 
0.8558 
0.8401 
0.8789 
0.8789 
0.879 
0.8792 
0.8793 
0.8795 
0.8796 
0.8797 
0.8798 
0.8799 
0.8799 
0.8799 
0.88 
0.88 
0.88 
0.88 
0.8799 
0.8799 
0.8799 
0.8799 
0.8798 
0.8796 
0.8791 
0.8744 
0.8725 
0.8402 
0.8348 
SCALARS Sw double 1
LOOKUP_TABLE default
0.7156 
0.7151 
0.7144 
0.7132 
0.7119 
0.7106 
0.7093 
0.708 
0.7067 
0.7053 
0.7039 
0.7025 
0.701 
0.6992 
0.6947 
0.6864 
0.675 
0.6614 
0.6465 
0.631 
0.6152 
0.599 
0.5729 
0.5151 
0.3799 
0.1774 
0.1225 
0.7151 
0.7148 
0.7141 
0.7126 
0.7114 
0.7102 
0.709 
0.7077 
0.7064 
0.7051 
0.7037 
0.7023 
0.7008 
0.6989 
0.6939 
0.6853 
0.6736 
0.66 
0.6452 
0.6299 
0.6143 
0.5983 
0.5719 
0.5135 
0.3764 
0.1753 
0.1224 
0.7144 
0.7141 
0.7139 
0.7127 