# vtk DataFile Version 3.0
MOAB 5.4.1
ASCII
DATASET UNSTRUCTURED_GRID
POINTS 968 double
0 0 0
1 0 0
2 0 0
3 0 0
4 0 0
5 0 0
6 0 0
7 0 0
8 0 0
9 0 0
10 0 0
11 0 0
12 0 0
13 0 0
14 0 0
15 0 0
16 0 0
17 0 0
18 0 0
19 0 0
20 0 0
21 0 0
0 1 0
1 1 0
2 1 0
3 1 0
4 1 0
5 1 0
6 1 0
7 1 0
8 1 0
9 1 0
10 1 0
11 1 0
12 1 0
13 1 0
14 1 0
15 1 0
16 1 0
17 1 0
18 1 0
19 1 0
20 1 0
21 1 0
0 2 0
1 2 0
2 2 0
3 2 0
4 2 0
5 2 0
6 2 0
7 2 0
8 2 0
9 2 0
10 2 0
11 2 0
12 2 0
13 2 0
14 2 0
15 2 0
16 2 0
17 2 0
18 2 0
19 2 0
20 2 0
21 2 0
0 3 0
1 3 0
2 3 0
3 3 0
4 3 0
5 3 0
6 3 0
7 3 0
8 3 0
9 3 0
10 3 0
11 3 0
12 3 0
13 3 0
14 3 0
15 3 0
16 3 0
17 3 0
18 3 0
19 3 0
20 3 0
21 3 0
0 4 0
1 4 0
2 4 0
3 4 0
4 4 0
5 4 0
6 4 0
7 4 0
8 4 0
9 4 0
10 4 0
11 4 0
12 4 0
13 4 0
14 4 0
15 4 0
16 4 0
17 4 0
18 4 0
19 4 0
20 4 0
21 4 0
0 5 0
1 5 0
2 5 0
3 5 0
4 5 0
5 5 0
6 5 0
7 5 0
8 5 0
9 5 0
10 5 0
11 5 0
12 5 0
13 5 0
14 5 0
15 5 0
16 5 0
17 5 0
18 5 0
19 5 0
20 5 0
21 5 0
0 6 0
1 6 0
2 6 0
3 6 0
4 6 0
5 6 0
6 6 0
7 6 0
8 6 0
9 6 0
10 6 0
11 6 0
12 6 0
13 6 0
14 6 0
15 6 0
16 6 0
17 6 0
18 6 0
19 6 0
20 6 0
21 6 0
0 7 0
1 7 0
2 7 0
3 7 0
4 7 0
5 7 0
6 7 0
7 7 0
8 7 0
9 7 0
10 7 0
11 7 0
12 7 0
13 7 0
14 7 0
15 7 0
16 7 0
17 7 0
18 7 0
19 7 0
20 7 0
21 7 0
0 8 0
1 8 0
2 8 0
3 8 0
4 8 0
5 8 0
6 8 0
7 8 0
8 8 0
9 8 0
10 8 0
11 8 0
12 8 0
13 8 0
14 8 0
15 8 0
16 8 0
17 8 0
18 8 0
19 8 0
20 8 0
21 8 0
0 9 0
1 9 0
2 9 0
3 9 0
4 9 0
5 9 0
6 9 0
7 9 0
8 9 0
9 9 0
10 9 0
11 9 0
12 9 0
13 9 0
14 9 0
15 9 0
16 9 0
17 9 0
18 9 0
19 9 0
20 9 0
21 9 0
0 10 0
1 10 0
2 10 0
3 10 0
4 10 0
5 10 0
6 10 0
7 10 0
8 10 0
9 10 0
10 10 0
11 10 0
12 10 0
13 10 0
14 10 0
15 10 0
16 10 0
17 10 0
18 10 0
19 10 0
20 10 0
21 10 0
0 11 0
1 11 0
2 11 0
3 11 0
4 11 0
5 11 0
6 11 0
7 11 0
8 11 0
9 11 0
10 11 0
11 11 0
12 11 0
13 11 0
14 11 0
15 11 0
16 11 0
17 11 0
18 11 0
19 11 0
20 11 0
21 11 0
0 12 0
1 12 0
2 12 0
3 12 0
4 12 0
5 12 0
6 12 0
7 12 0
8 12 0
9 12 0
10 12 0
11 12 0
12 12 0
13 12 0
14 12 0
15 12 0
16 12 0
17 12 0
18 12 0
19 12 0
20 12 0
21 12 0
0 13 0
1 13 0
2 13 0
3 13 0
4 13 0
5 13 0
6 13 0
7 13 0
8 13 0
9 13 0
10 13 0
11 13 0
12 13 0
13 13 0
14 13 0
15 13 0
16 13 0
17 13 0
18 13 0
19 13 0
20 13 0
21 13 0
0 14 0
1 14 0
2 14 0
3 14 0
4 14 0
5 14 0
6 14 0
7 14 0
8 14 0
9 14 0
10 14 0
11 14 0
12 14 0
13 14 0
14 14 0
15 14 0
16 14 0
17 14 0
18 14 0
19 14 0
20 14 0
21 14 0
0 15 0
1 15 0
2 15 0
3 15 0
4 15 0
5 15 0
6 15 0
7 15 0
8 15 0
9 15 0
10 15 0
11 15 0
12 15 0
13 15 0
14 15 0
15 15 0
16 15 0
17 15 0
18 15 0
19 15 0
20 15 0
21 15 0
0 16 0
1 16 0
2 16 0
3 16 0
4 16 0
5 16 0
6 16 0
7 16 0
8 16 0
9 16 0
10 16 0
11 16 0
12 16 0
13 16 0
14 16 0
15 16 0
16 16 0
17 16 0
18 16 0
19 16 0
20 16 0
21 16 0
0 17 0
1 17 0
2 17 0
3 17 0
4 17 0
5 17 0
6 17 0
7 17 0
8 17 0
9 17 0
10 17 0
11 17 0
12 17 0
13 17 0
14 17 0
15 17 0
16 17 0
17 17 0
18 17 0
19 17 0
20 17 0
21 17 0
0 18 0
1 18 0
2 18 0
3 18 0
4 18 0
5 18 0
6 18 0
7 18 0
8 18 0
9 18 0
10 18 0
11 18 0
12 18 0
13 18 0
14 18 0
15 18 0
16 18 0
17 18 0
18 18 0
19 18 0
20 18 0
21 18 0
0 19 0
1 19 0
2 19 0
3 19 0
4 19 0
5 19 0
6 19 0
7 19 0
8 19 0
9 19 0
10 19 0
11 19 0
12 19 0
13 19 0
14 19 0
15 19 0
16 19 0
17 19 0
18 19 0
19 19 0
20 19 0
21 19 0
0 20 0
1 20 0
2 20 0
3 20 0
4 20 0
5 20 0
6 20 0
7 20 0
8 20 0
9 20 0
10 20 0
11 20 0
12 20 0
13 20 0
14 20 0
15 20 0
16 20 0
17 20 0
18 20 0
19 20 0
20 20 0
21 20 0
0 21 0
1 21 0
2 21 0
3 21 0
4 21 0
5 21 0
6 21 0
7 21 0
8 21 0
9 21 0
10 21 0
11 21 0
12 21 0
13 21 0
14 21 0
15 21 0
16 21 0
17 21 0
18 21 0
19 21 0
20 21 0
21 21 0
0 0 1
1 0 1
2 0 1
3 0 1
4 0 1
5 0 1
6 0 1
7 0 1
8 0 1
9 0 1
10 0 1
11 0 1
12 0 1
13 0 1
14 0 1
15 0 1
16 0 1
17 0 1
18 0 1
19 0 1
20 0 1
21 0 1
0 1 1
1 1 1
2 1 1
3 1 1
4 1 1
5 1 1
6 1 1
7 1 1
8 1 1
9 1 1
10 1 1
11 1 1
12 1 1
13 1 1
14 1 1
15 1 1
16 1 1
17 1 1
18 1 1
19 1 1
20 1 1
21 1 1
0 2 1
1 2 1
2 2 1
3 2 1
4 2 1
5 2 1
6 2 1
7 2 1
8 2 1
9 2 1
10 2 1
11 2 1
12 2 1
13 2 1
14 2 1
15 2 1
16 2 1
17 2 1
18 2 1
19 2 1
20 2 1
21 2 1
0 3 1
1 3 1
2 3 1
3 3 1
4 3 1
5 3 1
6 3 1
7 3 1
8 3 1
9 3 1
10 3 1
11 3 1
12 3 1
13 3 1
14 3 1
15 3 1
16 3 1
17 3 1
18 3 1
19 3 1
20 3 1
21 3 1
0 4 1
1 4 1
2 4 1
3 4 1
4 4 1
5 4 1
6 4 1
7 4 1
8 4 1
9 4 1
10 4 1
11 4 1
12 4 1
13 4 1
14 4 1
15 4 1
16 4 1
17 4 1
18 4 1
19 4 1
20 4 1
21 4 1
0 5 1
1 5 1
2 5 1
3 5 1
4 5 1
5 5 1
6 5 1
7 5 1
8 5 1
9 5 1
10 5 1
11 5 1
12 5 1
13 5 1
14 5 1
15 5 1
16 5 1
17 5 1
18 5 1
19 5 1
20 5 1
21 5 1
0 6 1
1 6 1
2 6 1
3 6 1
4 6 1
5 6 1
6 6 1
7 6 1
8 6 1
9 6 1
10 6 1
11 6 1
12 6 1
13 6 1
14 6 1
15 6 1
16 6 1
17 6 1
18 6 1
19 6 1
20 6 1
21 6 1
0 7 1
1 7 1
2 7 1
3 7 1
4 7 1
5 7 1
6 7 1
7 7 1
8 7 1
9 7 1
10 7 1
11 7 1
12 7 1
13 7 1
14 7 1
15 7 1
16 7 1
17 7 1
18 7 1
19 7 1
20 7 1
21 7 1
0 8 1
1 8 1
2 8 1
3 8 1
4 8 1
5 8 1
6 8 1
7 8 1
8 8 1
9 8 1
10 8 1
11 8 1
12 8 1
13 8 1
14 8 1
15 8 1
16 8 1
17 8 1
18 8 1
19 8 1
20 8 1
21 8 1
0 9 1
1 9 1
2 9 1
3 9 1
4 9 1
5 9 1
6 9 1
7 9 1
8 9 1
9 9 1
10 9 1
11 9 1
12 9 1
13 9 1
14 9 1
15 9 1
16 9 1
17 9 1
18 9 1
19 9 1
20 9 1
21 9 1
0 10 1
1 10 1
2 10 1
3 10 1
4 10 1
5 10 1
6 10 1
7 10 1
8 10 1
9 10 1
10 10 1
11 10 1
12 10 1
13 10 1
14 10 1
15 10 1
16 10 1
17 10 1
18 10 1
19 10 1
20 10 1
21 10 1
0 11 1
1 11 1
2 11 1
3 11 1
4 11 1
5 11 1
6 11 1
7 11 1
8 11 1
9 11 1
10 11 1
11 11 1
12 11 1
13 11 1
14 11 1
15 11 1
16 11 1
17 11 1
18 11 1
19 11 1
20 11 1
21 11 1
0 12 1
1 12 1
2 12 1
3 12 1
4 12 1
5 12 1
6 12 1
7 12 1
8 12 1
9 12 1
10 12 1
11 12 1
12 12 1
13 12 1
14 12 1
15 12 1
16 12 1
17 12 1
18 12 1
19 12 1
20 12 1
21 12 1
0 13 1
1 13 1
2 13 1
3 13 1
4 13 1
5 13 1
6 13 1
7 13 1
8 13 1
9 13 1
10 13 1
11 13 1
12 13 1
13 13 1
14 13 1
15 13 1
16 13 1
17 13 1
18 13 1
19 13 1
20 13 1
21 13 1
0 14 1
1 14 1
2 14 1
3 14 1
4 14 1
5 14 1
6 14 1
7 14 1
8 14 1
9 14 1
10 14 1
11 14 1
12 14 1
13 14 1
14 14 1
15 14 1
16 14 1
17 14 1
18 14 1
19 14 1
20 14 1
21 14 1
0 15 1
1 15 1
2 15 1
3 15 1
4 15 1
5 15 1
6 15 1
7 15 1
8 15 1
9 15 1
10 15 1
11 15 1
12 15 1
13 15 1
14 15 1
15 15 1
16 15 1
17 15 1
18 15 1
19 15 1
20 15 1
21 15 1
0 16 1
1 16 1
2 16 1
3 16 1
4 16 1
5 16 1
6 16 1
7 16 1
8 16 1
9 16 1
10 16 1
11 16 1
12 16 1
13 16 1
14 16 1
15 16 1
16 16 1
17 16 1
18 16 1
19 16 1
20 16 1
21 16 1
0 17 1
1 17 1
2 17 1
3 17 1
4 17 1
5 17 1
6 17 1
7 17 1
8 17 1
9 17 1
10 17 1
11 17 1
12 17 1
13 17 1
14 17 1
15 17 1
16 17 1
17 17 1
18 17 1
19 17 1
20 17 1
21 17 1
0 18 1
1 18 1
2 18 1
3 18 1
4 18 1
5 18 1
6 18 1
7 18 1
8 18 1
9 18 1
10 18 1
11 18 1
12 18 1
13 18 1
14 18 1
15 18 1
16 18 1
17 18 1
18 18 1
19 18 1
20 18 1
21 18 1
0 19 1
1 19 1
2 19 1
3 19 1
4 19 1
5 19 1
6 19 1
7 19 1
8 19 1
9 19 1
10 19 1
11 19 1
12 19 1
13 19 1
14 19 1
15 19 1
16 19 1
17 19 1
18 19 1
19 19 1
20 19 1
21 19 1
0 20 1
1 20 1
2 20 1
3 20 1
4 20 1
5 20 1
6 20 1
7 20 1
8 20 1
9 20 1
10 20 1
11 20 1
12 20 1
13 20 1
14 20 1
15 20 1
16 20 1
17 20 1
18 20 1
19 20 1
20 20 1
21 20 1
0 21 1
1 21 1
2 21 1
3 21 1
4 21 1
5 21 1
6 21 1
7 21 1
8 21 1
9 21 1
10 21 1
11 21 1
12 21 1
13 21 1
14 21 1
15 21 1
16 21 1
17 21 1
18 21 1
19 21 1
20 21 1
21 21 1
CELLS 441 3969
8 0 1 23 22 484 485 507 506
8 22 23 45 44 506 507 529 528
8 44 45 67 66 528 529 551 550
8 66 67 89 88 550 551 573 572
8 88 89 111 110 572 573 595 594
8 110 111 133 132 594 595 617 616
8 132 133 155 154 616 617 639 638
8 154 155 177 176 638 639 661 660
8 176 177 199 198 660 661 683 682
8 198 199 221 220 682 683 705 704
8 220 221 243 242 704 705 727 726
8 242 243 265 264 726 727 749 748
8 264 265 287 286 748 749 771 770
8 286 287 309 308 770 771 793 792
8 308 309 331 330 792 793 815 814
8 330 331 353 352 814 815 837 836
8 352 353 375 374 836 837 859 858
8 374 375 397 396 858 859 881 880
8 396 397 419 418 880 881 903 902
8 418 419 441 440 902 903 925 924
8 440 441 463 462 924 925 947 946
8 1 2 24 23 485 486 508 507
8 23 24 46 45 507 508 530 529
8 45 46 68 67 529 530 552 551
8 67 68 90 89 551 552 574 573
8 89 90 112 111 573 574 596 595
8 111 112 134 133 595 596 618 617
8 133 134 156 155 617 618 640 639
8 155 156 178 177 639 640 662 661
8 177 178 200 199 661 662 684 683
8 199 200 222 221 683 684 706 705
8 221 222 244 243 705 706 728 727
8 243 244 266 265 727 728 750 749
8 265 266 288 287 749 750 772 771
8 287 288 310 309 771 772 794 793
8 309 310 332 331 793 794 816 815
8 331 332 354 353 815 816 838 837
8 353 354 376 375 837 838 860 859
8 375 376 398 397 859 860 882 881
8 397 398 420 419 881 882 904 903
8 419 420 442 441 903 904 926 925
8 441 442 464 463 925 926 948 947
8 2 3 25 24 486 487 509 508
8 24 25 47 46 508 509 531 530
8 46 47 69 68 530 531 553 552
8 68 69 91 90 552 553 575 574
8 90 91 113 112 574 575 597 596
8 112 113 135 134 596 597 619 618
8 134 135 157 156 618 619 641 640
8 156 157 179 178 640 641 663 662
8 178 179 201 200 662 663 685 684
8 200 201 223 222 684 685 707 706
8 222 223 245 244 706 707 729 728
8 244 245 267 266 728 729 751 750
8 266 267 289 288 750 751 773 772
8 288 289 311 310 772 773 795 794
8 310 311 333 332 794 795 817 816
8 332 333 355 354 816 817 839 838
8 354 355 377 376 838 839 861 860
8 376 377 399 398 860 861 883 882
8 398 399 421 420 882 883 905 904
8 420 421 443 442 904 905 927 926
8 442 443 465 464 926 927 949 948
8 3 4 26 25 487 488 510 509
8 25 26 48 47 509 510 532 531
8 47 48 70 69 531 532 554 553
8 69 70 92 91 553 554 576 575
8 91 92 114 113 575 576 598 597
8 113 114 136 135 597 598 620 619
8 135 136 158 157 619 620 642 641
8 157 158 180 179 641 642 664 663
8 179 180 202 201 663 664 686 685
8 201 202 224 223 685 686 708 707
8 223 224 246 245 707 708 730 729
8 245 246 268 267 729 730 752 751
8 267 268 290 289 751 752 774 773
8 289 290 312 311 773 774 796 795
8 311 312 334 333 795 796 818 817
8 333 334 356 355 817 818 840 839
8 355 356 378 377 839 840 862 861
8 377 378 400 399 861 862 884 883
8 399 400 422 421 883 884 906 905
8 421 422 444 443 905 906 928 927
8 443 444 466 465 927 928 950 949
8 4 5 27 26 488 489 511 510
8 26 27 49 48 510 511 533 532
8 48 49 71 70 532 533 555 554
8 70 71 93 92 554 555 577 576
8 92 93 115 114 576 577 599 598
8 114 115 137 136 598 599 621 620
8 136 137 159 158 620 621 643 642
8 158 159 181 180 642 643 665 664
[...]
POINT_DATA 968
SCALARS GLOBAL_ID int 1
LOOKUP_TABLE default
-1 
-1 
-1 
-1 
-1 
-1 
-1 
-1 
-1 
-1 
-1 
-1 
-1 
-1 
-1 
-1 
-1 
-1 
-1 
-1 
-1 
-1 
-1 
-1 
-1 
-1 
-1 
-1 
-1 
-1 
-1 
-1 
-1 
-1 
-1 
-1 
-1 
-1 
-1 
-1 
-1 
-1 
-1 
-1 
-1 
-1 
-1 
-1 
-1 
-1 
-1 
-1 
-1 
-1 
-1 
-1 
-1 
-1 
-1 
-1 
-1 
-1 
-1 
-1 
-1 
-1 
-1 
-1 
-1 
-1 
-1 
-1 
-1 
-1 
-1 
-1 
-1 
-1 
-1 
-1 
-1 
-1 
-1 
-1 
-1 
-1 
-1 
-1 
-1 
-1 
-1 
-1 
-1 
-1 
-1 
-1 
-1 
-1 
-1 
-1 
-1 
-1 
-1 
-1 
-1 
-1 
-1 
-1 
-1 
-1 
-1 
-1 
-1 
-1 
-1 
-1 
-1 
-1 
-1 
-1 
-1 
-1 
-1 
-1 
-1 
-1 
-1 
-1 
-1 
-1 
-1 
-1 
-1 
-1 
-1 
-1 
-1 
-1 
-1 
-1 
-1 
-1 
-1 
-1 
-1 
-1 
-1 
-1 
-1 
-1 
-1 
-1 
-1 
-1 
-1 
-1 
-1 
-1 
-1 
-1 
-1 
-1 
-1 
-1 
-1 
-1 
-1 
-1 
-1 
-1 
-1 
-1 
-1 
-1 
-1 
-1 
-1 
-1 
-1 
-1 
-1 
-1 
-1 
-1 
-1 
-1 
-1 
-1 
-1 
-1 
-1 
-1 
-1 
-1 
-1 
-1 
-1 
-1 
-1 
-1 
-1 
-1 
-1 
-1 
-1 
-1 
-1 
-1 
-1 
-1 
-1 
-1 
-1 
-1 
-1 
-1 
-1 
-1 
-1 
-1 
-1 
-1 
-1 
-1 
-1 
-1 
-1 
-1 
-1 
-1 
-1 
-1 
-1 
-1 
-1 
-1 
-1 
-1 
-1 
-1 
-1 
-1 
-1 
-1 
-1 
-1 
-1 
-1 
-1 
-1 
-1 
-1 
-1 
-1 
-1 
-1 
-1 
-1 
-1 
-1 
-1 
-1 
-1 
-1 
-1 
-1 
-1 
-1 
-1 
-1 
-1 
-1 
-1 
-1 
-1 
-1 
-1 
-1 
-1 
-1 
-1 
-1 
-1 
-1 
-1 
-1 
-1 
-1 
-1 
-1 
-1 
-1 
-1 
-1 
-1 
-1 
-1 
-1 
-1 
-1 
-1 
-1 
-1 
-1 
-1 
-1 
-1 
-1 
-1 
-1 
-1 
-1 
-1 
-1 
-1 
-1 
-1 
-1 
-1 
-1 
-1 
-1 
-1 
-1 
-1 
-1 
-1 
-1 
-1 
-1 
-1 
-1 
-1 
-1 
-1 
-1 
-1 
-1 
-1 
-1 
-1 
-1 
-1 
-1 
-1 
-1 
-1 
-1 
-1 
-1 
-1 
-1 
-1 
-1 
-1 
-1 
-1 
-1 
-1 
-1 
-1 
-1 
-1 
-1 
-1 
-1 
-1 
-1 
-1 
-1 
-1 
-1 
-1 
-1 
-1 
-1 
-1 
-1 
-1 
-1 
-1 
-1 
-1 
-1 
-1 
-1 
-1 
-1 
-1 
-1 
-1 
-1 
-1 
-1 
-1 
-1 
-1 
-1 
-1 
-1 
-1 
-1 
-1 
-1 
-1 
-1 
-1 
-1 
-1 
-1 
-1 
-1 
-1 
-1 
-1 
-1 
-1 
-1 
-1 
-1 
-1 
-1 
-1 
-1 
-1 
-1 
-1 
-1 
-1 
-1 
-1 
-1 
-1 
-1 
-1 
-1 
-1 
-1 
-1 
-1 
-1 
-1 
-1 
-1 
-1 
-1 
-1 
-1 
-1 
-1 
-1 
-1 
-1 
-1 
-1 
-1 
-1 
-1 
-1 
-1 
-1 
-1 
-1 
-1 
-1 
-1 
-1 
-1 
-1 
-1 
-1 
-1 
-1 
-1 
-1 
-1 
-1 
-1 
-1 
-1 
-1 
-1 
-1 
-1 
-1 
-1 
-1 
-1 
-1 
-1 
-1 
-1 
-1 
-1 
-1 
-1 
-1 
-1 
-1 
-1 
-1 
-1 
-1 
-1 
-1 
-1 
-1 
-1 
-1 
-1 
-1 
-1 
-1 
-1 
-1 
-1 
-1 
-1 
-1 
-1 
-1 
-1 
-1 
-1 
-1 
-1 
-1 
-1 
-1 
-1 
-1 
-1 
-1 
-1 
-1 
-1 
-1 
-1 
-1 
-1 
-1 
-1 
-1 
-1 
-1 
-1 
-1 
-1 
-1 
-1 
-1 
-1 
-1 
-1 
-1 
-1 
-1 
-1 
-1 
-1 
-1 
-1 
-1 
-1 
-1 
-1 
-1 
-1 
-1 
-1 
-1 
-1 
-1 
-1 
-1 
-1 
-1 
-1 
-1 
-1 
-1 
-1 
-1 
-1 
-1 
-1 
-1 
-1 
-1 
-1 
-1 
-1 
-1 
-1 
-1 
-1 
-1 
-1 
-1 
-1 
-1 
-1 
-1 
-1 
-1 
-1 
-1 
-1 
-1 
-1 
-1 
-1 
-1 
-1 
-1 
-1 
-1 
-1 
-1 
-1 
-1 
-1 
-1 
-1 
-1 
-1 
-1 
-1 
-1 
-1 
-1 
-1 
-1 
-1 
-1 
-1 
-1 
-1 
-1 
-1 
-1 
-1 
-1 
-1 
-1 
-1 
-1 
-1 
-1 
-1 
-1 
-1 
-1 
-1 
-1 
-1 
-1 
-1 
-1 
-1 
-1 
-1 
-1 
-1 
-1 
-1 
-1 
-1 
-1 
-1 
-1 
-1 
-1 
-1 
-1 
-1 
-1 
-1 
-1 
-1 
-1 
-1 
-1 
-1 
-1 
-1 
-1 
-1 
-1 
-1 
-1 
-1 
-1 
-1 
-1 
-1 
-1 
-1 
-1 
-1 
-1 
-1 
-1 
-1 
-1 
-1 
-1 
-1 
-1 
-1 
-1 
-1 
-1 
-1 
-1 
-1 
-1 
-1 
-1 
-1 
-1 
-1 
-1 
-1 
-1 
-1 
-1 
-1 
-1 
-1 
-1 
-1 
-1 
-1 
-1 
-1 
-1 
-1 
-1 
-1 
-1 
-1 
-1 
-1 
-1 
-1 
-1 
-1 
-1 
-1 
-1 
-1 
-1 
-1 
-1 
-1 
-1 
-1 
-1 
-1 
-1 
-1 
-1 
-1 
-1 
-1 
-1 
-1 
-1 
-1 
-1 
-1 
-1 
-1 
-1 
-1 
-1 
-1 
-1 
-1 
-1 
-1 
-1 
-1 
-1 
-1 
-1 
-1 
-1 
-1 
-1 
-1 
-1 
-1 
-1 
-1 
-1 
-1 
-1 
-1 
-1 
-1 
-1 
-1 
-1 
-1 
-1 
-1 
-1 
-1 
-1 
-1 
-1 
-1 
-1 
-1 
-1 
-1 
-1 
-1 
-1 
-1 
-1 
-1 
-1 
-1 
-1 
-1 
-1 
-1 
-1 
-1 
-1 
-1 
-1 
-1 
-1 
-1 
-1 
-1 
-1 
-1 
-1 
-1 
-1 
-1 
-1 
-1 
-1 
-1 
-1 
-1 
-1 
-1 
-1 
-1 
-1 
-1 
-1 
-1 
-1 
-1 
-1 
-1 
-1 
-1 
-1 
-1 
-1 
-1 
-1 
-1 
-1 
-1 
-1 
-1 
-1 
-1 
-1 
-1 
-1 
-1 
-1 
-1 
-1 
-1 
-1 
-1 
-1 
-1 
-1 
-1 
-1 
-1 
-1 
-1 
-1 
-1 
-1 
-1 
-1 
-1 
-1 
-1 
-1 
-1 
-1 
-1 
-1 
-1 
-1 
-1 
-1 
-1 
-1 
-1 
-1 
-1 
-1 
-1 
-1 
-1 
-1 
-1 
-1 
-1 
-1 
-1 
-1 
-1 
-1 
-1 
-1 
-1 
-1 
-1 
-1 
-1 
-1 
-1 
-1 
-1 
-1 
-1 
-1 
-1 
-1 
-1 
-1 
-1 
-1 
-1 
-1 
-1 
-1 
-1 
-1 
-1 
-1 
-1 
-1 
-1 
-1 
-1 
-1 
-1 
-1 
-1 
CELL_DATA 441
SCALARS GLOBAL_ID int 1
LOOKUP_TABLE default
-1 
-1 
-1 
-1 
-1 
-1 
-1 
-1 
-1 
-1 
-1 
-1 
-1 
-1 
-1 
-1 
-1 
-1 
-1 
-1 
-1 
-1 
-1 
-1 
-1 
-1 
-1 
-1 
-1 
-1 
-1 
-1 
-1 
-1 
-1 
-1 
-1 
-1 
-1 
-1 
-1 
-1 
-1 
-1 
-1 
-1 
-1 
-1 
-1 
-1 
-1 
-1 
-1 
-1 
-1 
-1 
-1 
-1 
-1 
-1 
-1 
-1 
-1 
-1 
-1 
-1 
-1 
-1 
-1 
-1 
-1 
-1 
-1 
-1 
-1 
-1 
-1 
-1 
-1 
-1 
-1 
-1 
-1 
-1 
-1 
-1 
-1 
-1 
-1 
-1 
-1 
-1 
-1 
-1 
-1 
-1 
-1 
-1 
-1 
-1 
-1 
-1 
-1 
-1 
-1 
-1 
-1 
-1 
-1 
-1 
-1 
-1 
-1 
-1 
-1 
-1 
-1 
-1 
-1 
-1 
-1 
-1 
-1 
-1 
-1 
-1 
-1 
-1 
-1 
-1 
-1 
-1 
-1 
-1 
-1 
-1 
-1 
-1 
-1 
-1 
-1 
-1 
-1 
-1 
-1 
-1 
-1 
-1 
-1 
-1 
-1 
-1 
-1 
-1 
-1 
-1 
-1 
-1 
-1 
-1 
-1 
-1 
-1 
-1 
-1 
-1 
-1 
-1 
-1 
-1 
-1 
-1 
-1 
-1 
-1 
-1 
-1 
-1 
-1 
-1 
-1 
-1 
-1 
-1 
-1 
-1 
-1 
-1 
-1 
-1 
-1 
-1 
-1 
-1 
-1 
-1 
-1 
-1 
-1 
-1 
-1 
-1 
-1 
-1 
-1 
-1 
-1 
-1 
-1 
-1 
-1 
-1 
-1 
-1 
-1 
-1 
-1 
-1 
-1 
-1 
-1 
-1 
-1 
-1 
-1 
-1 
-1 
-1 
-1 
-1 
-1 
-1 
-1 
-1 
-1 
-1 
-1 
-1 
-1 
-1 
-1 
-1 
-1 
-1 
-1 
-1 
-1 
-1 
-1 
-1 
-1 
-1 
-1 
-1 
-1 
-1 
-1 
-1 
-1 
-1 
-1 
-1 
-1 
-1 
-1 
-1 
-1 
-1 
-1 
-1 
-1 
-1 
-1 
-1 
-1 
-1 
-1 
-1 
-1 
-1 
-1 
-1 
-1 
-1 
-1 
-1 
-1 
-1 
-1 
-1 
-1 
-1 
-1 
-1 
-1 
-1 
-1 
-1 
-1 
-1 
-1 
-1 
-1 
-1 
-1 
-1 
-1 
-1 
-1 
-1 
-1 
-1 
-1 
-1 
-1 
-1 
-1 
-1 
-1 
-1 
-1 
-1 
-1 
-1 
-1 
-1 
-1 
-1 
-1 
-1 
-1 
-1 
-1 
-1 
-1 
-1 
-1 
-1 
-1 
-1 
-1 
-1 
-1 
-1 
-1 
-1 
-1 
-1 
-1 
-1 
-1 
-1 
-1 
-1 
-1 
-1 
-1 
-1 
-1 
-1 
-1 
-1 
-1 
-1 
-1 
-1 
-1 
-1 
-1 
-1 
-1 
-1 
-1 
-1 
-1 
-1 
-1 
-1 
-1 
-1 
-1 
-1 
-1 
-1 
-1 
-1 
-1 
-1 
-1 
-1 
-1 
-1 
-1 
-1 
-1 
-1 
-1 
-1 
-1 
-1 
-1 
-1 
-1 
-1 
-1 
-1 
-1 
-1 
-1 
-1 
-1 
-1 
-1 
-1 
-1 
-1 
-1 
-1 
-1 
-1 
-1 
-1 
-1 
-1 
-1 
-1 
-1 
-1 
-1 
-1 
-1 
-1 
-1 
-1 
-1 
-1 
-1 
-1 
-1 
-1 
-1 
SCALARS pressure double 1
LOOKUP_TABLE default
100 
93.25431168 
89.08113069 
86.11489079 
83.7906877 
81.8426398 
80.12767774 
78.56062232 
77.08830995 
75.67870203 
74.31579399 
72.99684013 
71.730446 
70.53452628 
69.43312235 
68.45155418 
67.61115412 
66.92678924 
66.40689022 
66.05412972 
65.86614623 
93.25431168 
90.54097652 
87.78369666 
85.39346883 
83.34280617 
81.54383866 
79.9189814 
78.40919518 
76.97236449 
75.58165445 
74.22392834 
72.89842751 
71.61586608 
70.39739188 
69.27192327 
68.27003621 
67.41543748 
66.72260551 
66.19834691 
65.84365555 
65.65495105 
89.08113069 
87.78369666 
86.03966999 
84.2589219 
82.57497166 
81.00743493 
79.53594724 
78.12923866 
76.75791093 
75.40195647 
74.05247932 
72.71167067 
71.39344642 
70.12489538 
68.94595354 
67.90097241 
67.01829508 
66.31009469 
65.77873968 
65.42134306 
65.23182098 
86.11489079 
85.39346883 
84.2589219 
82.95870173 
81.62597106 
80.31410029 
79.03084181 
77.7598626 
76.47692453 
75.16711387 
73.825818 
72.45757762 
71.07810518 
69.72079496 
68.44505893 
67.32944763 
66.40701983 
65.68091998 
65.14355858 
64.78512583 
64.59573755 
83.7906877 
83.34280617 
82.57497166 
81.62597106 
80.59457125 
79.53389714 
78.45829927 
77.3501584 
76.17310962 
74.9163061 
73.58056253 
72.17077778 
70.6979881 
69.19359095 
67.74337222 
66.52471288 
65.55976603 
64.823118 
64.28771935 
63.9337015 
63.74685095 
81.8426398 
81.54383866 
81.00743493 
80.31410029 
79.53389714 
78.71291098 
77.86530204 
76.95891745 
75.90094381 
74.69835152 
73.36494969 
71.90397485 
70.3076061 
68.57125283 
66.7698678 
65.42644403 
64.44461348 
63.72415007 
63.20872387 
62.86898464 
62.68849636 
80.12767774 
79.9189814 
79.53594724 
79.03084181 
78.45829927 
77.86530204 
77.28020088 
76.67065935 
75.7269752 
74.56658667 
73.23373647 
71.73054503 
70.01610521 
67.97359586 
65.29867931 
63.92711623 
63.02868107 
62.3803368 
61.91239083 
61.59926175 
61.4292587 
78.56062232 
78.40919518 
78.12923866 
77.7598626 
77.3501584 
76.95891745 
76.67065935 
76.07076685 
74.76004979 
73.35759342 
71.80311526 
70.05000187 
67.96298379 
65.1119003 
62.48396282 
61.9155771 
61.32369415 
60.81669011 
60.41999073 
60.14148255 
59.98375862 
77.08830995 
76.97236449 
76.75791093 
76.47692453 
76.17310962 
75.90094381 
75.7269752 
74.76004979 
72.87704646 
71.06642425 
69.17713465 
67.12175805 
64.76894576 
61.92100344 
60.18015006 
59.88860026 
59.49506314 
59.10366291 
58.76866615 
58.51912317 
58.37024906 
75.67870203 
75.58165445 
75.40195647 
75.16711387 
74.9163061 
74.69835152 
74.56658667 
73.35759342 
71.06642425 
68.9519158 
66.83743168 
64.63501503 
62.24695625 
59.5846359 
58.11692476 
57.92462779 
57.62538724 
57.29510898 
56.99135123 
56.75322462 
56.60457479 
74.31579399 
74.22392834 
74.05247932 
73.825818 
73.58056253 
73.36494969 
73.23373647 
71.80311526 
69.17713465 
66.83743168 
64.58569459 
62.33395751 
59.99928642 
57.51852146 
56.19772607 
56.02829727 
55.74734635 
55.42036761 
55.10748734 
54.85518313 
54.69411733 
72.99684013 
72.89842751 
72.71167067 
72.45757762 
72.17077778 
71.90397485 
71.73054503 
70.05000187 
67.12175805 
64.63501503 
62.33395751 
60.11583398 
57.89771045 
55.61059389 
54.40088798 
54.20346544 
53.87495321 
53.49070341 
53.12096345 
52.82225303 
52.63292387 
71.730446 
71.61586608 
71.39344642 
71.07810518 
70.6979881 
70.3076061 
70.01610521 
67.96298379 
64.76894576 
62.24695625 
59.99928642 
57.89771045 
55.86512752 
53.83254459 
52.75456922 
52.46832961 
52.01624245 
51.50376731 
51.01917635 
50.63370378 
50.3968485 
70.53452628 
70.39739188 
70.12489538 
69.72079496 
69.19359095 
68.57125283 
67.97359586 
65.1119003 
61.92100344 
59.5846359 
57.51852146 
55.61059389 
53.83254459 
52.1757093 
51.34646324 
50.85516643 
50.1731834 
49.44329267 
48.7707799 
48.24584218 
47.93652193 
69.43312235 
69.27192327 
68.94595354 
68.44505893 
67.74337222 
66.7698678 
65.29867931 
62.48396282 
60.18015006 
58.11692476 
56.19772607 
54.40088798 
52.75456922 
51.34646324 
50.37800435 
49.38407589 
48.32898906 
47.27572751 
46.32300672 
45.58540192 
45.16619287 
68.45155418 
68.27003621 
67.90097241 
67.32944763 
66.52471288 
65.42644403 
63.92711623 
61.9155771 
59.88860026 
57.92462779 
56.02829727 
54.20346544 
52.46832961 
50.85516643 
49.38407589 
47.92019893 
46.42795817 
44.95248213 
43.60323085 
42.54216459 
41.94658647 
67.61115412 
67.41543748 
67.01829508 
66.40701983 
65.55976603 
64.44461348 
63.02868107 
61.32369415 
59.49506314 
57.62538724 
55.74734635 
53.87495321 
52.01624245 
50.1731834 
48.32898906 
46.42795817 
44.45066519 
42.44205953 
40.5328715 
38.96162126 
38.05454 
66.92678924 
66.72260551 
66.31009469 
65.68091998 
64.823118 
63.72415007 
62.3803368 
60.81669011 
59.10366291 
57.29510898 
55.42036761 
53.49070341 
51.50376731 
49.44329267 
47.27572751 
44.95248213 
42.44205953 
39.76670561 
37.05679496 
34.63876027 
33.11554506 
66.40689022 
66.19834691 
65.77873968 
65.14355858 
64.28771935 
63.20872387 
61.91239083 
60.41999073 
58.76866615 
56.99135123 
55.10748734 
53.12096345 
51.01917635 
48.7707799 
46.32300672 
43.60323085 
40.5328715 
37.05679496 
33.21650665 
29.33827432 
26.43821913 
66.05412972 
65.84365555 
65.42134306 
64.78512583 
63.9337015 
62.86898464 
61.59926175 
60.14148255 
58.51912317 
56.75322462 
54.85518313 
52.82225303 
50.63370378 
48.24584218 
45.58540192 
42.54216459 
38.96162126 
34.63876027 
29.33827432 
22.97518565 
16.5718008 
65.86614623 
65.65495105 
65.23182098 
64.59573755 
63.74685095 
62.68849636 
61.4292587 
59.98375862 
58.37024906 
56.60457479 
54.69411733 
52.63292387 
50.3968485 
47.93652193 
45.16619287 
41.94658647 
38.05454 
33.11554506 
26.43821913 
16.5718008 
0 
SCALARS saturation double 1
LOOKUP_TABLE default
0.8 
0.7938118774 
0.7874077929 
0.7795500747 
0.7705392289 
0.7607355906 
0.750470533 
0.7400179299 
0.7295757499 
0.719253955 
0.7090730887 
0.698969445 
0.6887975618 
0.678321535 
0.6671872075 
0.6548595361 
0.6404681918 
0.6223289181 
0.596263433 
0.5482083838 
0.4095656622 
0.7938118774 
0.7890138981 
0.7827153743 
0.77504756 
0.7662675031 
0.7566862756 
0.7466184338 
0.7363469327 
0.7260924537 
0.7159883501 
0.706073568 
0.696296074 
0.6865124367 
0.6764737063 
0.6657929268 
0.6538878257 
0.6398532259 
0.6219888403 
0.5961118653 
0.5481524765 
0.4094161797 
0.7874077929 
0.7827153743 
0.7765265031 
0.7690357179 
0.7604717459 
0.751105024 
0.7412332047 
0.7311573895 
0.7211403666 
0.7113527995 
0.7018588862 
0.6926200746 
0.6834894626 
0.6741852318 
0.6642452633 
0.6529782241 
0.6394214606 
0.6218697346 
0.5961635609 
0.5482642672 
0.4094737287 
0.7795500747 
0.77504756 
0.7690357179 
0.7617388326 
0.7533667537 
0.7441586917 
0.7344048709 
0.7244518528 
0.714651287 
0.7052253049 
0.6962641363 
0.6877467951 
0.6795294465 
0.6712902774 
0.6624411676 
0.6520557799 
0.6390909746 
0.6218655573 
0.5962835483 
0.5483697511 
0.4094192096 
0.7705392289 
0.7662675031 
0.7604717459 
0.7533667537 
0.7451292374 
0.7359529928 
0.7261120383 
0.7160443572 
0.7063309673 
0.6972361089 
0.6888525031 
0.6811844349 
0.67412711 
0.6673523652 
0.6601046484 
0.6509187375 
0.6386679925 
0.6217662973 
0.5962442831 
0.5482143596 
0.40883696 
0.7607355906 
0.7566862756 
0.751105024 
0.7441586917 
0.7359529928 
0.7265716867 
0.7161698369 
0.705285482 
0.6953416183 
0.686428544 
0.6785375072 
0.6717092033 
0.6659789006 
0.6611693235 
0.6564339405 
0.6489999311 
0.6376932816 
0.6211729082 
0.5956957075 
0.5474731615 
0.4072522979 
0.750470533 
0.7466184338 
0.7412332047 
0.7344048709 
0.7261120383 
0.7161698369 
0.7040971811 
0.6893160167 
0.6785467384 
0.6694663537 
0.6616935694 
0.6553076209 
0.6506891197 
0.6483855292 
0.6482792009 
0.6444312187 
0.6350370472 
0.6193708818 
0.5941731008 
0.5458174153 
0.4042330569 
0.7400179299 
0.7363469327 
0.7311573895 
0.7244518528 
0.7160443572 
0.705285482 
0.6893160167 
0.217627714 
0.211827935 
0.2131959345 
0.2141529165 
0.215249668 
0.2172443553 
0.2221150762 
0.6425527969 
0.6392996546 
0.6307879922 
0.6160492328 
0.5914231045 
0.543109729 
0.3995703 
0.7295757499 
0.7260924537 
0.7211403666 
0.714651287 
0.7063309673 
0.6953416183 
0.6785467384 
0.211827935 
0.2000049087 
0.2000034532 
0.2000042756 
0.2000052305 
0.2000069148 
0.2000107395 
0.6361696332 
0.6336021438 
0.625675042 
0.6117162999 
0.5877370341 
0.5395896177 
0.3934282577 
0.719253955 
0.7159883501 
0.7113527995 
0.7052253049 
0.6972361089 
0.686428544 
0.6694663537 
0.2131959345 
0.2000034532 
0.2 
0.2 
0.2 
0.2 
0.2 
0.6292818236 
0.6274016414 
0.6200159702 
0.6067901871 
0.5835171657 
0.5356696688 
0.3862265788 
0.7090730887 
0.706073568 
0.7018588862 
0.6962641363 
0.6888525031 
0.6785375072 
0.6616935694 
0.2141529165 
0.2000042756 
0.2 
0.2 
0.2 
0.2 
0.2 
0.6219203297 
0.6206843801 
0.6139404974 
0.6015391677 
0.5791195018 
0.5317866563 
0.3785878933 
0.698969445 
0.696296074 
0.6926200746 
0.6877467951 
0.6811844349 
0.6717092033 
0.6553076209 
0.215249668 
0.2000052305 
0.2 
0.2 
0.2 
0.2 
0.2 
0.6139078141 
0.6132889631 
0.6074362304 
0.5961088892 
0.5748260871 
0.5283523202 
0.3714750976 
0.6887975618 
0.6865124367 
0.6834894626 
0.6795294465 
0.67412711 
0.6659789006 
0.6506891197 
0.2172443553 
0.2000069148 
0.2 
0.2 
0.2 
0.2 
0.2 
0.6046835227 
0.6047801754 
0.6002878437 
0.5904964808 
0.5708245209 
0.525753843 
0.3663913762 
0.678321535 
0.6764737063 
0.6741852318 
0.6712902774 
0.6673523652 
0.6611693235 
0.6483855292 
0.2221150762 
0.2000107395 
0.2 
0.2 
0.2 
0.2 
0.2 
0.5925367665 
0.5939549788 
0.5917540653 
0.5843540292 
0.5670963661 
0.5243264032 
0.3652697057 
0.6671872075 
0.6657929268 
0.6642452633 
0.6624411676 
0.6601046484 
0.6564339405 
0.6482792009 
0.6425527969 
0.6361696332 
0.6292818236 
0.6219203297 
0.6139078141 
0.6046835227 
0.5925367665 
0.5830287359 
0.5816470006 
0.5811827711 
0.5769013291 
0.5632046658 
0.5242048969 
0.3698456645 
0.6548595361 
0.6538878257 
0.6529782241 
0.6520557799 
0.6509187375 
0.6489999311 
0.6444312187 
0.6392996546 
0.6336021438 
0.6274016414 
0.6206843801 
0.6132889631 
0.6047801754 
0.5939549788 
0.5816470006 
0.5743140317 
0.571462696 
0.5685441891 
0.5586768588 
0.5252035661 
0.3810428785 
0.6404681918 
0.6398532259 
0.6394214606 
0.6390909746 
0.6386679925 
0.6376932816 
0.6350370472 
0.6307879922 
0.625675042 
0.6200159702 
0.6139404974 
0.6074362304 
0.6002878437 
0.5917540653 
0.5811827711 
0.571462696 
0.5651643222 
0.5611491806 
0.553838026 
0.5270197645 
0.3989744081 
0.6223289181 
0.6219888403 
0.6218697346 
0.6218655573 
0.6217662973 
0.6211729082 
0.6193708818 
0.6160492328 
0.6117162999 
0.6067901871 
0.6015391677 
0.5961088892 
0.5904964808 
0.5843540292 
0.5769013291 
0.5685441891 
0.5611491806 
0.5557073487 
0.5495284062 
0.5294414782 
0.4230774716 
0.596263433 
0.5961118653 
0.5961635609 
0.5962835483 
0.5962442831 
0.5956957075 
0.5941731008 
0.5914231045 
0.5877370341 
0.5835171657 
0.5791195018 
0.5748260871 
0.5708245209 
0.5670963661 
0.5632046658 
0.5586768588 
0.553838026 
0.5495284062 
0.5450417832 
0.5317041973 
0.4516010327 
0.5482083838 
0.5481524765 
0.5482642672 
0.5483697511 
0.5482143596 
0.5474731615 
0.5458174153 
0.543109729 
0.5395896177 
0.5356696688 
0.5317866563 
0.5283523202 
0.525753843 
0.5243264032 
0.5242048969 
0.5252035661 
0.5270197645 
0.5294414782 
0.5317041973 
0.5283913305 
0.4790459102 
0.4095656622 
0.4094161797 
0.4094737287 
0.4094192096 
0.40883696 
0.4072522979 
0.4042330569 
0.3995703 
0.3934282577 
0.3862265788 
0.3785878933 
0.3714750976 
0.3663913762 
0.3652697057 
0.3698456645 
0.3810428785 
0.3989744081 
0.4230774716 
0.4516010327 
0.4790459102 
0.4774756498 
SCALARS permeabilityx double 1
LOOKUP_TABLE default
1 
1 
1 
1 
1 
1 
1 
1 
1 
1 
1 
1 
1 
1 
1 
1 
1 
1 
1 
1 
1 
1 
1 
1 
1 
1 
1 
1 
1 
1 
1 
1 
1 
1 
1 
1 
1 
1 
1 
1 
1 
1 
1 
1 
1 
1 
1 
1 
1 
1 
1 
1 
1 
1 
1 
1 
1 
1 
1 
1 
1 
1 
1 
1 
1 
1 
1 
1 
1 
1 
1 
1 
1 
1 
1 
1 
1 
1 
1 
1 
1 
1 
1 
1 
1 
1 
1 
1 
1 
1 
1 
1 
1 
1 
1 
1 
1 
1 
1 
1 
1 
1 
1 
1 
1 
1 
1 
1 
1 
1 
1 
1 
1 
1 
1 
1 
1 
1 
1 
1 
1 
1 
1 
1 
1 
1 
1 
1 
1 
1 
1 
1 
1 
1 
1 
1 
1 
1 
1 
1 
1 
1 
1 
1 
1 
1 
1 
1 
1 
1 
1 
1 
1 
1 
0.001 
0.001 
0.001 
0.001 
0.001 
0.001 
0.001 
1 
1 
1 
1 
1 
1 
1 
1 
1 
1 
1 
1 
1 
1 
0.001 
0.001 
0.001 
0.001 
0.001 
0.001 
0.001 
1 
1 
1 
1 
1 
1 
1 
1 
1 
1 
1 
1 
1 
1 
0.001 
0.001 
0.001 
0.001 
0.001 
0.001 
0.001 
1 
1 
1 
1 
1 
1 
1 
1 
1 
1 
1 
1 
1 
1 
0.001 
0.001 
0.001 
0.001 
0.001 
0.001 
0.001 
1 
1 
1 
1 
1 
1 
1 
1 
1 
1 
1 
1 
1 
1 
0.001 
0.001 
0.001 
0.001 
0.001 
0.001 
0.001 
1 
1 
1 
1 
1 
1 
1 
1 
1 
1 
1 
1 
1 
1 
0.001 
0.001 
0.001 
0.001 
0.001 
0.001 
0.001 
1 
1 
1 
1 
1 
1 
1 
1 
1 
1 
1 
1 
1 
1 
0.001 
0.001 
0.001 
0.001 
0.001 
0.001 
0.001 
1 
1 
1 
1 
1 
1 
1 
1 
1 
1 
1 
1 
1 
1 
1 
1 
1 
1 
1 
1 
1 
1 
1 
1 
1 
1 
1 
1 
1 
1 
1 
1 
1 
1 
1 
1 
1 
1 
1 
1 
1 
1 
1 
1 
1 
1 
1 
1 
1 
1 
1 
1 
1 
1 
1 
1 
1 
1 
1 
1 
1 
1 
1 
1 
1 
1 
1 
1 
1 
1 
1 
1 
1 
1 
1 
1 
1 
1 
1 
1 
1 
1 
1 
1 
1 
1 
1 
1 
1 
1 
1 
1 
1 
1 
1 
1 
1 
1 
1 
1 
1 
1 
1 
1 
1 
1 
1 
1 
1 
1 
1 
1 
1 
1 
1 
1 
1 
1 
1 
1 
1 
1 
1 
1 
1 
1 
1 
1 
1 
1 
1 
1 
1 
1 
1 
1 
1 
1 
1 
1 
1 
1 
1 
1 
1 
1 
1 
1 
1 
1 
1 
1 
1 
1 
