# vtk DataFile Version 3.0
MOAB 5.4.1
ASCII
DATASET UNSTRUCTURED_GRID
POINTS 968 double
0 0 0
1 0 0
2 0 0
3 0 0
4 0 0
5 0 0
6 0 0
7 0 0
8 0 0
9 0 0
10 0 0
11 0 0
12 0 0
13 0 0
14 0 0
15 0 0
16 0 0
17 0 0
18 0 0
19 0 0
20 0 0
21 0 0
0 1 0
1 1 0
2 1 0
3 1 0
4 1 0
5 1 0
6 1 0
7 1 0
8 1 0
9 1 0
10 1 0
11 1 0
12 1 0
13 1 0
14 1 0
15 1 0
16 1 0
17 1 0
18 1 0
19 1 0
20 1 0
21 1 0
0 2 0
1 2 0
2 2 0
3 2 0
4 2 0
5 2 0
6 2 0
7 2 0
8 2 0
9 2 0
10 2 0
11 2 0
12 2 0
13 2 0
14 2 0
15 2 0
16 2 0
17 2 0
18 2 0
19 2 0
20 2 0
21 2 0
0 3 0
1 3 0
2 3 0
3 3 0
4 3 0
5 3 0
6 3 0
7 3 0
8 3 0
9 3 0
10 3 0
11 3 0
12 3 0
13 3 0
14 3 0
15 3 0
16 3 0
17 3 0
18 3 0
19 3 0
20 3 0
21 3 0
0 4 0
1 4 0
2 4 0
3 4 0
4 4 0
5 4 0
6 4 0
7 4 0
8 4 0
9 4 0
10 4 0
11 4 0
12 4 0
13 4 0
14 4 0
15 4 0
16 4 0
17 4 0
18 4 0
19 4 0
20 4 0
21 4 0
0 5 0
1 5 0
2 5 0
3 5 0
4 5 0
5 5 0
6 5 0
7 5 0
8 5 0
9 5 0
10 5 0
11 5 0
12 5 0
13 5 0
14 5 0
15 5 0
16 5 0
17 5 0
18 5 0
19 5 0
20 5 0
21 5 0
0 6 0
1 6 0
2 6 0
3 6 0
4 6 0
5 6 0
6 6 0
7 6 0
8 6 0
9 6 0
10 6 0
11 6 0
12 6 0
13 6 0
14 6 0
15 6 0
16 6 0
17 6 0
18 6 0
19 6 0
20 6 0
21 6 0
0 7 0
1 7 0
2 7 0
3 7 0
4 7 0
5 7 0
6 7 0
7 7 0
8 7 0
9 7 0
10 7 0
11 7 0
12 7 0
13 7 0
14 7 0
15 7 0
16 7 0
17 7 0
18 7 0
19 7 0
20 7 0
21 7 0
0 8 0
1 8 0
2 8 0
3 8 0
4 8 0
5 8 0
6 8 0
7 8 0
8 8 0
9 8 0
10 8 0
11 8 0
12 8 0
13 8 0
14 8 0
15 8 0
16 8 0
17 8 0
18 8 0
19 8 0
20 8 0
21 8 0
0 9 0
1 9 0
2 9 0
3 9 0
4 9 0
5 9 0
6 9 0
7 9 0
8 9 0
9 9 0
10 9 0
11 9 0
12 9 0
13 9 0
14 9 0
15 9 0
16 9 0
17 9 0
18 9 0
19 9 0
20 9 0
21 9 0
0 10 0
1 10 0
2 10 0
3 10 0
4 10 0
5 10 0
6 10 0
7 10 0
8 10 0
9 10 0
10 10 0
11 10 0
12 10 0
13 10 0
14 10 0
15 10 0
16 10 0
17 10 0
18 10 0
19 10 0
20 10 0
21 10 0
0 11 0
1 11 0
2 11 0
3 11 0
4 11 0
5 11 0
6 11 0
7 11 0
8 11 0
9 11 0
10 11 0
11 11 0
12 11 0
13 11 0
14 11 0
15 11 0
16 11 0
17 11 0
18 11 0
19 11 0
20 11 0
21 11 0
0 12 0
1 12 0
2 12 0
3 12 0
4 12 0
5 12 0
6 12 0
7 12 0
8 12 0
9 12 0
10 12 0
11 12 0
12 12 0
13 12 0
14 12 0
15 12 0
16 12 0
17 12 0
18 12 0
19 12 0
20 12 0
21 12 0
0 13 0
1 13 0
2 13 0
3 13 0
4 13 0
5 13 0
6 13 0
7 13 0
8 13 0
9 13 0
10 13 0
11 13 0
12 13 0
13 13 0
14 13 0
15 13 0
16 13 0
17 13 0
18 13 0
19 13 0
20 13 0
21 13 0
0 14 0
1 14 0
2 14 0
3 14 0
4 14 0
5 14 0
6 14 0
7 14 0
8 14 0
9 14 0
10 14 0
11 14 0
12 14 0
13 14 0
14 14 0
15 14 0
16 14 0
17 14 0
18 14 0
19 14 0
20 14 0
21 14 0
0 15 0
1 15 0
2 15 0
3 15 0
4 15 0
5 15 0
6 15 0
7 15 0
8 15 0
9 15 0
10 15 0
11 15 0
12 15 0
13 15 0
14 15 0
15 15 0
16 15 0
17 15 0
18 15 0
19 15 0
20 15 0
21 15 0
0 16 0
1 16 0
2 16 0
3 16 0
4 16 0
5 16 0
6 16 0
7 16 0
8 16 0
9 16 0
10 16 0
11 16 0
12 16 0
13 16 0
14 16 0
15 16 0
16 16 0
17 16 0
18 16 0
19 16 0
20 16 0
21 16 0
0 17 0
1 17 0
2 17 0
3 17 0
4 17 0
5 17 0
6 17 0
7 17 0
8 17 0
9 17 0
10 17 0
11 17 0
12 17 0
13 17 0
14 17 0
15 17 0
16 17 0
17 17 0
18 17 0
19 17 0
20 17 0
21 17 0
0 18 0
1 18 0
2 18 0
3 18 0
4 18 0
5 18 0
6 18 0
7 18 0
8 18 0
9 18 0
10 18 0
11 18 0
12 18 0
13 18 0
14 18 0
15 18 0
16 18 0
17 18 0
18 18 0
19 18 0
20 18 0
21 18 0
0 19 0
1 19 0
2 19 0
3 19 0
4 19 0
5 19 0
6 19 0
7 19 0
8 19 0
9 19 0
10 19 0
11 19 0
12 19 0
13 19 0
14 19 0
15 19 0
16 19 0
17 19 0
18 19 0
19 19 0
20 19 0
21 19 0
0 20 0
1 20 0
2 20 0
3 20 0
4 20 0
5 20 0
6 20 0
7 20 0
8 20 0
9 20 0
10 20 0
11 20 0
12 20 0
13 20 0
14 20 0
15 20 0
16 20 0
17 20 0
18 20 0
19 20 0
20 20 0
21 20 0
0 21 0
1 21 0
2 21 0
3 21 0
4 21 0
5 21 0
6 21 0
7 21 0
8 21 0
9 21 0
10 21 0
11 21 0
12 21 0
13 21 0
14 21 0
15 21 0
16 21 0
17 21 0
18 21 0
19 21 0
20 21 0
21 21 0
0 0 1
1 0 1
2 0 1
3 0 1
4 0 1
5 0 1
6 0 1
7 0 1
8 0 1
9 0 1
10 0 1
11 0 1
12 0 1
13 0 1
14 0 1
15 0 1
16 0 1
17 0 1
18 0 1
19 0 1
20 0 1
21 0 1
0 1 1
1 1 1
2 1 1
3 1 1
4 1 1
5 1 1
6 1 1
7 1 1
8 1 1
9 1 1
10 1 1
11 1 1
12 1 1
13 1 1
14 1 1
15 1 1
16 1 1
17 1 1
18 1 1
19 1 1
20 1 1
21 1 1
0 2 1
1 2 1
2 2 1
3 2 1
4 2 1
5 2 1
6 2 1
7 2 1
8 2 1
9 2 1
10 2 1
11 2 1
12 2 1
13 2 1
14 2 1
15 2 1
16 2 1
17 2 1
18 2 1
19 2 1
20 2 1
21 2 1
0 3 1
1 3 1
2 3 1
3 3 1
4 3 1
5 3 1
6 3 1
7 3 1
8 3 1
9 3 1
10 3 1
11 3 1
12 3 1
13 3 1
14 3 1
15 3 1
16 3 1
17 3 1
18 3 1
19 3 1
20 3 1
21 3 1
0 4 1
1 4 1
2 4 1
3 4 1
4 4 1
5 4 1
6 4 1
7 4 1
8 4 1
9 4 1
10 4 1
11 4 1
12 4 1
13 4 1
14 4 1
15 4 1
16 4 1
17 4 1
18 4 1
19 4 1
20 4 1
21 4 1
0 5 1
1 5 1
2 5 1
3 5 1
4 5 1
5 5 1
6 5 1
7 5 1
8 5 1
9 5 1
10 5 1
11 5 1
12 5 1
13 5 1
14 5 1
15 5 1
16 5 1
17 5 1
18 5 1
19 5 1
20 5 1
21 5 1
0 6 1
1 6 1
2 6 1
3 6 1
4 6 1
5 6 1
6 6 1
7 6 1
8 6 1
9 6 1
10 6 1
11 6 1
12 6 1
13 6 1
14 6 1
15 6 1
16 6 1
17 6 1
18 6 1
19 6 1
20 6 1
21 6 1
0 7 1
1 7 1
2 7 1
3 7 1
4 7 1
5 7 1
6 7 1
7 7 1
8 7 1
9 7 1
10 7 1
11 7 1
12 7 1
13 7 1
14 7 1
15 7 1
16 7 1
17 7 1
18 7 1
19 7 1
20 7 1
21 7 1
0 8 1
1 8 1
2 8 1
3 8 1
4 8 1
5 8 1
6 8 1
7 8 1
8 8 1
9 8 1
10 8 1
11 8 1
12 8 1
13 8 1
14 8 1
15 8 1
16 8 1
17 8 1
18 8 1
19 8 1
20 8 1
21 8 1
0 9 1
1 9 1
2 9 1
3 9 1
4 9 1
5 9 1
6 9 1
7 9 1
8 9 1
9 9 1
10 9 1
11 9 1
12 9 1
13 9 1
14 9 1
15 9 1
16 9 1
17 9 1
18 9 1
19 9 1
20 9 1
21 9 1
0 10 1
1 10 1
2 10 1
3 10 1
4 10 1
5 10 1
6 10 1
7 10 1
8 10 1
9 10 1
10 10 1
11 10 1
12 10 1
13 10 1
14 10 1
15 10 1
16 10 1
17 10 1
18 10 1
19 10 1
20 10 1
21 10 1
0 11 1
1 11 1
2 11 1
3 11 1
4 11 1
5 11 1
6 11 1
7 11 1
8 11 1
9 11 1
10 11 1
11 11 1
12 11 1
13 11 1
14 11 1
15 11 1
16 11 1
17 11 1
18 11 1
19 11 1
20 11 1
21 11 1
0 12 1
1 12 1
2 12 1
3 12 1
4 12 1
5 12 1
6 12 1
7 12 1
8 12 1
9 12 1
10 12 1
11 12 1
12 12 1
13 12 1
14 12 1
15 12 1
16 12 1
17 12 1
18 12 1
19 12 1
20 12 1
21 12 1
0 13 1
1 13 1
2 13 1
3 13 1
4 13 1
5 13 1
6 13 1
7 13 1
8 13 1
9 13 1
10 13 1
11 13 1
12 13 1
13 13 1
14 13 1
15 13 1
16 13 1
17 13 1
18 13 1
19 13 1
20 13 1
21 13 1
0 14 1
1 14 1
2 14 1
3 14 1
4 14 1
5 14 1
6 14 1
7 14 1
8 14 1
9 14 1
10 14 1
11 14 1
12 14 1
13 14 1
14 14 1
15 14 1
16 14 1
17 14 1
18 14 1
19 14 1
20 14 1
21 14 1
0 15 1
1 15 1
2 15 1
3 15 1
4 15 1
5 15 1
6 15 1
7 15 1
8 15 1
9 15 1
10 15 1
11 15 1
12 15 1
13 15 1
14 15 1
15 15 1
16 15 1
17 15 1
18 15 1
19 15 1
20 15 1
21 15 1
0 16 1
1 16 1
2 16 1
3 16 1
4 16 1
5 16 1
6 16 1
7 16 1
8 16 1
9 16 1
10 16 1
11 16 1
12 16 1
13 16 1
14 16 1
15 16 1
16 16 1
17 16 1
18 16 1
19 16 1
20 16 1
21 16 1
0 17 1
1 17 1
2 17 1
3 17 1
4 17 1
5 17 1
6 17 1
7 17 1
8 17 1
9 17 1
10 17 1
11 17 1
12 17 1
13 17 1
14 17 1
15 17 1
16 17 1
17 17 1
18 17 1
19 17 1
20 17 1
21 17 1
0 18 1
1 18 1
2 18 1
3 18 1
4 18 1
5 18 1
6 18 1
7 18 1
8 18 1
9 18 1
10 18 1
11 18 1
12 18 1
13 18 1
14 18 1
15 18 1
16 18 1
17 18 1
18 18 1
19 18 1
20 18 1
21 18 1
0 19 1
1 19 1
2 19 1
3 19 1
4 19 1
5 19 1
6 19 1
7 19 1
8 19 1
9 19 1
10 19 1
11 19 1
12 19 1
13 19 1
14 19 1
15 19 1
16 19 1
17 19 1
18 19 1
19 19 1
20 19 1
21 19 1
0 20 1
1 20 1
2 20 1
3 20 1
4 20 1
5 20 1
6 20 1
7 20 1
8 20 1
9 20 1
10 20 1
11 20 1
12 20 1
13 20 1
14 20 1
15 20 1
16 20 1
17 20 1
18 20 1
19 20 1
20 20 1
21 20 1
0 21 1
1 21 1
2 21 1
3 21 1
4 21 1
5 21 1
6 21 1
7 21 1
8 21 1
9 21 1
10 21 1
11 21 1
12 21 1
13 21 1
14 21 1
15 21 1
16 21 1
17 21 1
18 21 1
19 21 1
20 21 1
21 21 1
CELLS 441 3969
8 0 1 23 22 484 485 507 506
8 22 23 45 44 506 507 529 528
8 44 45 67 66 528 529 551 550
8 66 67 89 88 550 551 573 572
8 88 89 111 110 572 573 595 594
8 110 111 133 132 594 595 617 616
8 132 133 155 154 616 617 639 638
8 154 155 177 176 638 639 661 660
8 176 177 199 198 660 661 683 682
8 198 199 221 220 682 683 705 704
8 220 221 243 242 704 705 727 726
8 242 243 265 264 726 727 749 748
8 264 265 287 286 748 749 771 770
8 286 287 309 308 770 771 793 792
8 308 309 331 330 792 793 815 814
8 330 331 353 352 814 815 837 836
8 352 353 375 374 836 837 859 858
8 374 375 397 396 858 859 881 880
8 396 397 419 418 880 881 903 902
8 418 419 441 440 902 903 925 924
8 440 441 463 462 924 925 947 946
8 1 2 24 23 485 486 508 507
8 23 24 46 45 507 508 530 529
8 45 46 68 67 529 530 552 551
8 67 68 90 89 551 552 574 573
8 89 90 112 111 573 574 596 595
8 111 112 134 133 595 596 618 617
8 133 134 156 155 617 618 640 639
8 155 156 178 177 639 640 662 661
8 177 178 200 199 661 662 684 683
8 199 200 222 221 683 684 706 705
8 221 222 244 243 705 706 728 727
8 243 244 266 265 727 728 750 749
8 265 266 288 287 749 750 772 771
8 287 288 310 309 771 772 794 793
8 309 310 332 331 793 794 816 815
8 331 332 354 353 815 816 838 837
8 353 354 376 375 837 838 860 859
8 375 376 398 397 859 860 882 881
8 397 398 420 419 881 882 904 903
8 419 420 442 441 903 904 926 925
8 441 442 464 463 925 926 948 947
8 2 3 25 24 486 487 509 508
8 24 25 47 46 508 509 531 530
8 46 47 69 68 530 531 553 552
8 68 69 91 90 552 553 575 574
8 90 91 113 112 574 575 597 596
8 112 113 135 134 596 597 619 618
8 134 135 157 156 618 619 641 640
8 156 157 179 178 640 641 663 662
8 178 179 201 200 662 663 685 684
8 200 201 223 222 684 685 707 706
8 222 223 245 244 706 707 729 728
8 244 245 267 266 728 729 751 750
8 266 267 289 288 750 751 773 772
8 288 289 311 310 772 773 795 794
8 310 311 333 332 794 795 817 816
8 332 333 355 354 816 817 839 838
8 354 355 377 376 838 839 861 860
8 376 377 399 398 860 861 883 882
8 398 399 421 420 882 883 905 904
8 420 421 443 442 904 905 927 926
8 442 443 465 464 926 927 949 948
8 3 4 26 25 487 488 510 509
8 25 26 48 47 509 510 532 531
8 47 48 70 69 531 532 554 553
8 69 70 92 91 553 554 576 575
8 91 92 114 113 575 576 598 597
8 113 114 136 135 597 598 620 619
8 135 136 158 157 619 620 642 641
8 157 158 180 179 641 642 664 663
8 179 180 202 201 663 664 686 685
8 201 202 224 223 685 686 708 707
8 223 224 246 245 707 708 730 729
8 245 246 268 267 729 730 752 751
8 267 268 290 289 751 752 774 773
8 289 290 312 311 773 774 796 795
8 311 312 334 333 795 796 818 817
8 333 334 356 355 817 818 840 839
8 355 356 378 377 839 840 862 861
8 377 378 400 399 861 862 884 883
8 399 400 422 421 883 884 906 905
8 421 422 444 443 905 906 928 927
8 443 444 466 465 927 928 950 949
8 4 5 27 26 488 489 511 510
8 26 27 49 48 510 511 533 532
8 48 49 71 70 532 533 555 554
8 70 71 93 92 554 555 577 576
8 92 93 115 114 576 577 599 598
8 114 115 137 136 598 599 621 620
8 136 137 159 158 620 621 643 642
8 158 159 181 180 642 643 665 664
[...]
POINT_DATA 968
SCALARS GLOBAL_ID int 1
LOOKUP_TABLE default
-1 
-1 
-1 
-1 
-1 
-1 
-1 
-1 
-1 
-1 
-1 
-1 
-1 
-1 
-1 
-1 
-1 
-1 
-1 
-1 
-1 
-1 
-1 
-1 
-1 
-1 
-1 
-1 
-1 
-1 
-1 
-1 
-1 
-1 
-1 
-1 
-1 
-1 
-1 
-1 
-1 
-1 
-1 
-1 
-1 
-1 
-1 
-1 
-1 
-1 
-1 
-1 
-1 
-1 
-1 
-1 
-1 
-1 
-1 
-1 
-1 
-1 
-1 
-1 
-1 
-1 
-1 
-1 
-1 
-1 
-1 
-1 
-1 
-1 
-1 
-1 
-1 
-1 
-1 
-1 
-1 
-1 
-1 
-1 
-1 
-1 
-1 
-1 
-1 
-1 
-1 
-1 
-1 
-1 
-1 
-1 
-1 
-1 
-1 
-1 
-1 
-1 
-1 
-1 
-1 
-1 
-1 
-1 
-1 
-1 
-1 
-1 
-1 
-1 
-1 
-1 
-1 
-1 
-1 
-1 
-1 
-1 
-1 
-1 
-1 
-1 
-1 
-1 
-1 
-1 
-1 
-1 
-1 
-1 
-1 
-1 
-1 
-1 
-1 
-1 
-1 
-1 
-1 
-1 
-1 
-1 
-1 
-1 
-1 
-1 
-1 
-1 
-1 
-1 
-1 
-1 
-1 
-1 
-1 
-1 
-1 
-1 
-1 
-1 
-1 
-1 
-1 
-1 
-1 
-1 
-1 
-1 
-1 
-1 
-1 
-1 
-1 
-1 
-1 
-1 
-1 
-1 
-1 
-1 
-1 
-1 
-1 
-1 
-1 
-1 
-1 
-1 
-1 
-1 
-1 
-1 
-1 
-1 
-1 
-1 
-1 
-1 
-1 
-1 
-1 
-1 
-1 
-1 
-1 
-1 
-1 
-1 
-1 
-1 
-1 
-1 
-1 
-1 
-1 
-1 
-1 
-1 
-1 
-1 
-1 
-1 
-1 
-1 
-1 
-1 
-1 
-1 
-1 
-1 
-1 
-1 
-1 
-1 
-1 
-1 
-1 
-1 
-1 
-1 
-1 
-1 
-1 
-1 
-1 
-1 
-1 
-1 
-1 
-1 
-1 
-1 
-1 
-1 
-1 
-1 
-1 
-1 
-1 
-1 
-1 
-1 
-1 
-1 
-1 
-1 
-1 
-1 
-1 
-1 
-1 
-1 
-1 
-1 
-1 
-1 
-1 
-1 
-1 
-1 
-1 
-1 
-1 
-1 
-1 
-1 
-1 
-1 
-1 
-1 
-1 
-1 
-1 
-1 
-1 
-1 
-1 
-1 
-1 
-1 
-1 
-1 
-1 
-1 
-1 
-1 
-1 
-1 
-1 
-1 
-1 
-1 
-1 
-1 
-1 
-1 
-1 
-1 
-1 
-1 
-1 
-1 
-1 
-1 
-1 
-1 
-1 
-1 
-1 
-1 
-1 
-1 
-1 
-1 
-1 
-1 
-1 
-1 
-1 
-1 
-1 
-1 
-1 
-1 
-1 
-1 
-1 
-1 
-1 
-1 
-1 
-1 
-1 
-1 
-1 
-1 
-1 
-1 
-1 
-1 
-1 
-1 
-1 
-1 
-1 
-1 
-1 
-1 
-1 
-1 
-1 
-1 
-1 
-1 
-1 
-1 
-1 
-1 
-1 
-1 
-1 
-1 
-1 
-1 
-1 
-1 
-1 
-1 
-1 
-1 
-1 
-1 
-1 
-1 
-1 
-1 
-1 
-1 
-1 
-1 
-1 
-1 
-1 
-1 
-1 
-1 
-1 
-1 
-1 
-1 
-1 
-1 
-1 
-1 
-1 
-1 
-1 
-1 
-1 
-1 
-1 
-1 
-1 
-1 
-1 
-1 
-1 
-1 
-1 
-1 
-1 
-1 
-1 
-1 
-1 
-1 
-1 
-1 
-1 
-1 
-1 
-1 
-1 
-1 
-1 
-1 
-1 
-1 
-1 
-1 
-1 
-1 
-1 
-1 
-1 
-1 
-1 
-1 
-1 
-1 
-1 
-1 
-1 
-1 
-1 
-1 
-1 
-1 
-1 
-1 
-1 
-1 
-1 
-1 
-1 
-1 
-1 
-1 
-1 
-1 
-1 
-1 
-1 
-1 
-1 
-1 
-1 
-1 
-1 
-1 
-1 
-1 
-1 
-1 
-1 
-1 
-1 
-1 
-1 
-1 
-1 
-1 
-1 
-1 
-1 
-1 
-1 
-1 
-1 
-1 
-1 
-1 
-1 
-1 
-1 
-1 
-1 
-1 
-1 
-1 
-1 
-1 
-1 
-1 
-1 
-1 
-1 
-1 
-1 
-1 
-1 
-1 
-1 
-1 
-1 
-1 
-1 
-1 
-1 
-1 
-1 
-1 
-1 
-1 
-1 
-1 
-1 
-1 
-1 
-1 
-1 
-1 
-1 
-1 
-1 
-1 
-1 
-1 
-1 
-1 
-1 
-1 
-1 
-1 
-1 
-1 
-1 
-1 
-1 
-1 
-1 
-1 
-1 
-1 
-1 
-1 
-1 
-1 
-1 
-1 
-1 
-1 
-1 
-1 
-1 
-1 
-1 
-1 
-1 
-1 
-1 
-1 
-1 
-1 
-1 
-1 
-1 
-1 
-1 
-1 
-1 
-1 
-1 
-1 
-1 
-1 
-1 
-1 
-1 
-1 
-1 
-1 
-1 
-1 
-1 
-1 
-1 
-1 
-1 
-1 
-1 
-1 
-1 
-1 
-1 
-1 
-1 
-1 
-1 
-1 
-1 
-1 
-1 
-1 
-1 
-1 
-1 
-1 
-1 
-1 
-1 
-1 
-1 
-1 
-1 
-1 
-1 
-1 
-1 
-1 
-1 
-1 
-1 
-1 
-1 
-1 
-1 
-1 
-1 
-1 
-1 
-1 
-1 
-1 
-1 
-1 
-1 
-1 
-1 
-1 
-1 
-1 
-1 
-1 
-1 
-1 
-1 
-1 
-1 
-1 
-1 
-1 
-1 
-1 
-1 
-1 
-1 
-1 
-1 
-1 
-1 
-1 
-1 
-1 
-1 
-1 
-1 
-1 
-1 
-1 
-1 
-1 
-1 
-1 
-1 
-1 
-1 
-1 
-1 
-1 
-1 
-1 
-1 
-1 
-1 
-1 
-1 
-1 
-1 
-1 
-1 
-1 
-1 
-1 
-1 
-1 
-1 
-1 
-1 
-1 
-1 
-1 
-1 
-1 
-1 
-1 
-1 
-1 
-1 
-1 
-1 
-1 
-1 
-1 
-1 
-1 
-1 
-1 
-1 
-1 
-1 
-1 
-1 
-1 
-1 
-1 
-1 
-1 
-1 
-1 
-1 
-1 
-1 
-1 
-1 
-1 
-1 
-1 
-1 
-1 
-1 
-1 
-1 
-1 
-1 
-1 
-1 
-1 
-1 
-1 
-1 
-1 
-1 
-1 
-1 
-1 
-1 
-1 
-1 
-1 
-1 
-1 
-1 
-1 
-1 
-1 
-1 
-1 
-1 
-1 
-1 
-1 
-1 
-1 
-1 
-1 
-1 
-1 
-1 
-1 
-1 
-1 
-1 
-1 
-1 
-1 
-1 
-1 
-1 
-1 
-1 
-1 
-1 
-1 
-1 
-1 
-1 
-1 
-1 
-1 
-1 
-1 
-1 
-1 
-1 
-1 
-1 
-1 
-1 
-1 
-1 
-1 
-1 
-1 
-1 
-1 
-1 
-1 
-1 
-1 
-1 
-1 
-1 
-1 
-1 
-1 
-1 
-1 
-1 
-1 
-1 
-1 
-1 
-1 
-1 
-1 
-1 
-1 
-1 
-1 
-1 
-1 
-1 
-1 
-1 
-1 
-1 
-1 
-1 
-1 
-1 
-1 
-1 
-1 
-1 
-1 
-1 
-1 
-1 
-1 
-1 
-1 
-1 
-1 
-1 
-1 
-1 
-1 
-1 
-1 
-1 
-1 
-1 
-1 
-1 
-1 
-1 
-1 
-1 
-1 
-1 
-1 
-1 
-1 
-1 
-1 
-1 
-1 
-1 
-1 
-1 
-1 
-1 
-1 
-1 
-1 
-1 
-1 
-1 
-1 
-1 
-1 
-1 
-1 
-1 
-1 
-1 
-1 
-1 
-1 
-1 
-1 
-1 
-1 
-1 
-1 
-1 
-1 
-1 
-1 
-1 
-1 
-1 
-1 
-1 
-1 
-1 
-1 
-1 
-1 
-1 
-1 
-1 
-1 
CELL_DATA 441
SCALARS GLOBAL_ID int 1
LOOKUP_TABLE default
-1 
-1 
-1 
-1 
-1 
-1 
-1 
-1 
-1 
-1 
-1 
-1 
-1 
-1 
-1 
-1 
-1 
-1 
-1 
-1 
-1 
-1 
-1 
-1 
-1 
-1 
-1 
-1 
-1 
-1 
-1 
-1 
-1 
-1 
-1 
-1 
-1 
-1 
-1 
-1 
-1 
-1 
-1 
-1 
-1 
-1 
-1 
-1 
-1 
-1 
-1 
-1 
-1 
-1 
-1 
-1 
-1 
-1 
-1 
-1 
-1 
-1 
-1 
-1 
-1 
-1 
-1 
-1 
-1 
-1 
-1 
-1 
-1 
-1 
-1 
-1 
-1 
-1 
-1 
-1 
-1 
-1 
-1 
-1 
-1 
-1 
-1 
-1 
-1 
-1 
-1 
-1 
-1 
-1 
-1 
-1 
-1 
-1 
-1 
-1 
-1 
-1 
-1 
-1 
-1 
-1 
-1 
-1 
-1 
-1 
-1 
-1 
-1 
-1 
-1 
-1 
-1 
-1 
-1 
-1 
-1 
-1 
-1 
-1 
-1 
-1 
-1 
-1 
-1 
-1 
-1 
-1 
-1 
-1 
-1 
-1 
-1 
-1 
-1 
-1 
-1 
-1 
-1 
-1 
-1 
-1 
-1 
-1 
-1 
-1 
-1 
-1 
-1 
-1 
-1 
-1 
-1 
-1 
-1 
-1 
-1 
-1 
-1 
-1 
-1 
-1 
-1 
-1 
-1 
-1 
-1 
-1 
-1 
-1 
-1 
-1 
-1 
-1 
-1 
-1 
-1 
-1 
-1 
-1 
-1 
-1 
-1 
-1 
-1 
-1 
-1 
-1 
-1 
-1 
-1 
-1 
-1 
-1 
-1 
-1 
-1 
-1 
-1 
-1 
-1 
-1 
-1 
-1 
-1 
-1 
-1 
-1 
-1 
-1 
-1 
-1 
-1 
-1 
-1 
-1 
-1 
-1 
-1 
-1 
-1 
-1 
-1 
-1 
-1 
-1 
-1 
-1 
-1 
-1 
-1 
-1 
-1 
-1 
-1 
-1 
-1 
-1 
-1 
-1 
-1 
-1 
-1 
-1 
-1 
-1 
-1 
-1 
-1 
-1 
-1 
-1 
-1 
-1 
-1 
-1 
-1 
-1 
-1 
-1 
-1 
-1 
-1 
-1 
-1 
-1 
-1 
-1 
-1 
-1 
-1 
-1 
-1 
-1 
-1 
-1 
-1 
-1 
-1 
-1 
-1 
-1 
-1 
-1 
-1 
-1 
-1 
-1 
-1 
-1 
-1 
-1 
-1 
-1 
-1 
-1 
-1 
-1 
-1 
-1 
-1 
-1 
-1 
-1 
-1 
-1 
-1 
-1 
-1 
-1 
-1 
-1 
-1 
-1 
-1 
-1 
-1 
-1 
-1 
-1 
-1 
-1 
-1 
-1 
-1 
-1 
-1 
-1 
-1 
-1 
-1 
-1 
-1 
-1 
-1 
-1 
-1 
-1 
-1 
-1 
-1 
-1 
-1 
-1 
-1 
-1 
-1 
-1 
-1 
-1 
-1 
-1 
-1 
-1 
-1 
-1 
-1 
-1 
-1 
-1 
-1 
-1 
-1 
-1 
-1 
-1 
-1 
-1 
-1 
-1 
-1 
-1 
-1 
-1 
-1 
-1 
-1 
-1 
-1 
-1 
-1 
-1 
-1 
-1 
-1 
-1 
-1 
-1 
-1 
-1 
-1 
-1 
-1 
-1 
-1 
-1 
-1 
-1 
-1 
-1 
-1 
-1 
-1 
-1 
-1 
-1 
-1 
-1 
-1 
-1 
-1 
-1 
-1 
-1 
-1 
-1 
-1 
-1 
-1 
-1 
-1 
-1 
-1 
-1 
-1 
-1 
-1 
-1 
-1 
-1 
-1 
-1 
-1 
-1 
-1 
-1 
-1 
SCALARS pressure double 1
LOOKUP_TABLE default
100 
93.04573533 
88.75042644 
85.70233546 
83.31846005 
81.32440536 
79.57253063 
77.97494409 
76.47677047 
75.04486974 
73.66254452 
72.32664602 
71.04558802 
69.83724596 
68.72572235 
67.73644829 
66.89088191 
66.20404923 
65.6846831 
65.3361126 
65.15662321 
93.04573533 
90.25211115 
87.41636629 
84.96170762 
82.85941386 
81.01865781 
79.35933324 
77.8205268 
76.35878785 
74.94637085 
73.56955676 
72.22725631 
70.9300471 
69.69908946 
68.563418 
67.55377008 
66.69400058 
65.9987425 
65.47508725 
65.12466966 
64.94455672 
88.75042644 
87.41636629 
85.62477947 
83.79783132 
82.07289231 
80.47001433 
78.96814626 
77.53508419 
76.14057817 
74.76398958 
73.39602075 
72.03865725 
70.70577547 
69.42457311 
68.23521994 
67.18235244 
66.29450557 
65.58398739 
65.05340552 
64.70046554 
64.5196852 
85.70233546 
84.96170762 
83.79783132 
82.46547237 
81.10167993 
79.76136336 
78.45254976 
77.15858213 
75.85471272 
74.52566341 
73.16662913 
71.78209559 
70.38784709 
69.01750519 
67.73090966 
66.60717785 
65.67961082 
64.9514196 
64.41516175 
64.06153235 
63.88115265 
83.31846005 
82.85941386 
82.07289231 
81.10167993 
80.04738378 
78.96469075 
77.8685258 
76.74114435 
75.54568292 
74.27116811 
72.9184627 
71.4925681 
70.00467157 
68.48646844 
67.02442934 
65.79726076 
64.82730424 
64.08900624 
63.55530208 
63.20670587 
63.0293652 
81.32440536 
81.01865781 
80.47001433 
79.76136336 
78.96469075 
78.12738257 
77.26419033 
76.34271109 
75.26889923 
74.05003349 
72.70032937 
71.22328631 
69.61121134 
67.85963805 
66.04420646 
64.69178682 
63.70538165 
62.98409086 
62.47134129 
62.13804374 
61.96794618 
79.57253063 
79.35933324 
78.96814626 
78.45254976 
77.8685258 
77.26419033 
76.66864154 
76.04931307 
75.09200917 
73.91635733 
72.56760411 
71.0482824 
69.31745528 
67.25767786 
64.56266755 
63.18234074 
62.28060192 
61.63286339 
61.16908787 
60.86393548 
60.70572902 
77.97494409 
77.8205268 
77.53508419 
77.15858213 
76.74114435 
76.34271109 
76.04931307 
75.45883475 
74.13673719 
72.72414382 
71.15874212 
69.39453706 
67.29515551 
64.41853821 
61.72785403 
61.15682222 
60.56458842 
60.06032149 
59.66979396 
59.40134783 
59.25747009 
76.47677047 
76.35878785 
76.14057817 
75.85471272 
75.54568292 
75.26889923 
75.09200917 
74.13673719 
72.22851602 
70.40086326 
68.49400765 
66.41962563 
64.04425922 
61.16627871 
59.40701308 
59.11533447 
58.72372923 
58.33718017 
58.0105948 
57.77366356 
57.64141544 
75.04486974 
74.94637085 
74.76398958 
74.52566341 
74.27116811 
74.05003349 
73.91635733 
72.72414382 
70.40086326 
68.26666041 
66.13249071 
63.90947712 
61.49861626 
58.8100713 
57.32800418 
57.13679427 
56.84105452 
56.51745054 
56.2243516 
56.00171646 
55.87328764 
73.66254452 
73.56955676 
73.39602075 
73.16662913 
72.9184627 
72.70032937 
72.56760411 
71.15874212 
68.49400765 
66.13249071 
63.85986393 
61.58723716 
59.23074103 
56.72661475 
55.39354484 
55.22583295 
54.94940536 
54.63054221 
54.3303803 
54.09657281 
53.96012401 
72.32664602 
72.22725631 
72.03865725 
71.78209559 
71.4925681 
71.22328631 
71.0482824 
69.39453706 
66.41962563 
63.90947712 
61.58723716 
59.34886656 
57.11049596 
54.80250825 
53.58187582 
53.38644079 
53.06302613 
52.68789199 
52.33252175 
52.0550651 
51.89514003 
71.04558802 
70.9300471 
70.70577547 
70.38784709 
70.00467157 
69.61121134 
69.31745528 
67.29515551 
64.04425922 
61.49861626 
59.23074103 
57.11049596 
55.05986801 
53.00924006 
51.9216628 
51.63736045 
51.19053177 
50.6876871 
50.21847038 
49.85616737 
49.65277663 
69.83724596 
69.69908946 
69.42457311 
69.01750519 
68.48646844 
67.85963805 
67.25767786 
64.41853821 
61.16627871 
58.8100713 
56.72661475 
54.80250825 
53.00924006 
51.33832546 
50.5020327 
50.01207996 
49.33506491 
48.6148573 
47.95794658 
47.45661905 
47.1824245 
68.72572235 
68.563418 
68.23521994 
67.73090966 
67.02442934 
66.04420646 
64.56266755 
61.72785403 
59.40701308 
57.32800418 
55.39354484 
53.58187582 
51.9216628 
50.5020327 
49.52782623 
48.53289776 
47.48181667 
46.43796514 
45.50050878 
44.78528585 
44.39910088 
67.73644829 
67.55377008 
67.18235244 
66.60717785 
65.79726076 
64.69178682 
63.18234074 
61.15682222 
59.11533447 
57.13679427 
55.22583295 
53.38644079 
51.63736045 
50.01207996 
48.53289776 
47.0663598 
45.57741251 
44.11140021 
42.77740109 
41.73672185 
41.16824649 
66.89088191 
66.69400058 
66.29450557 
65.67961082 
64.82730424 
63.70538165 
62.28060192 
60.56458842 
58.72372923 
56.84105452 
54.94940536 
53.06302613 
51.19053177 
49.33506491 
47.48181667 
45.57741251 
43.60393266 
41.60667606 
39.71518807 
38.16441434 
37.27688379 
66.20404923 
65.9987425 
65.58398739 
64.9514196 
64.08900624 
62.98409086 
61.63286339 
60.06032149 
58.33718017 
56.51745054 
54.63054221 
52.68789199 
50.6876871 
48.6148573 
46.43796514 
44.11140021 
41.60667606 
38.94780062 
36.26403405 
33.87482462 
32.36892567 
65.6846831 
65.47508725 
65.05340552 
64.41516175 
63.55530208 
62.47134129 
61.16908787 
59.66979396 
58.0105948 
56.2243516 
54.3303803 
52.33252175 
50.21847038 
47.95794658 
45.50050878 
42.77740109 
39.71518807 
36.26403405 
32.46806046 
28.64642802 
25.78526042 
65.3361126 
65.12466966 
64.70046554 
64.06153235 
63.20670587 
62.13804374 
60.86393548 
59.40134783 
57.77366356 
56.00171646 
54.09657281 
52.0550651 
49.85616737 
47.45661905 
44.78528585 
41.73672185 
38.16441434 
33.87482462 
28.64642802 
22.40239776 
16.13248422 
65.15662321 
64.94455672 
64.5196852 
63.88115265 
63.0293652 
61.96794618 
60.70572902 
59.25747009 
57.64141544 
55.87328764 
53.96012401 
51.89514003 
49.65277663 
47.1824245 
44.39910088 
41.16824649 
37.27688379 
32.36892567 
25.78526042 
16.13248422 
0 
SCALARS saturation double 1
LOOKUP_TABLE default
0.8 
0.7942550628 
0.7882778166 
0.7809076536 
0.7724157529 
0.7631365849 
0.7533839546 
0.7434221701 
0.7334463726 
0.7235689914 
0.7138169696 
0.7041361107 
0.6943937167 
0.6843714522 
0.6737414682 
0.6620131476 
0.6484045641 
0.6314497548 
0.6076279757 
0.5652672793 
0.442967482 
0.7942550628 
0.7897845728 
0.7838908454 
0.7766839049 
0.7683956937 
0.7593148603 
0.7497392594 
0.7399415872 
0.7301384288 
0.7204644434 
0.7109640992 
0.7015942617 
0.6922239654 
0.6826220097 
0.6724286049 
0.6611073707 
0.6478427675 
0.6311541898 
0.6075196678 
0.5652707953 
0.442967083 
0.7882778166 
0.7838908454 
0.7780822654 
0.7710236988 
0.7629224369 
0.7540298209 
0.7446279814 
0.7350068435 
0.7254231251 
0.7160471493 
0.706947442 
0.6980934555 
0.6893502892 
0.6804543241 
0.6709726464 
0.6602635236 
0.6474559584 
0.631065262 
0.6075944616 
0.565410486 
0.4430972541 
0.7809076536 
0.7766839049 
0.7710236988 
0.7641291449 
0.7561915728 
0.7474338181 
0.7381313648 
0.7286175934 
0.7192342768 
0.7102010695 
0.7016111122 
0.6934499558 
0.6855845343 
0.6777114742 
0.6692756897 
0.6594098388 
0.6471657007 
0.6310826727 
0.6077276863 
0.5655321348 
0.4431004417 
0.7724157529 
0.7683956937 
0.7629224369 
0.7561915728 
0.748364736 
0.739622612 
0.7302256991 
0.7205949112 
0.7112917174 
0.7025761119 
0.6945427006 
0.6871997396 
0.6804497184 
0.6739811304 
0.6670768972 
0.6583553687 
0.6467888646 
0.6310096239 
0.6077101266 
0.5654094962 
0.4426382009 
0.7631365849 
0.7593148603 
0.7540298209 
0.7474338181 
0.739622612 
0.7306731656 
0.7207333311 
0.7103206061 
0.7008020481 
0.6922703682 
0.6847206128 
0.6781929121 
0.6727204237 
0.6681324319 
0.6636224103 
0.6565672454 
0.6458952192 
0.6304752845 
0.6072222677 
0.564755312 
0.4413310188 
0.7533839546 
0.7497392594 
0.7446279814 
0.7381313648 
0.7302256991 
0.7207333311 
0.7091983838 
0.6950860502 
0.6848134988 
0.6761619602 
0.6687656992 
0.6626959071 
0.658306977 
0.6561075106 
0.6559753042 
0.6523056106 
0.6434374959 
0.6288245823 
0.6058471773 
0.5632853328 
0.4388584473 
0.7434221701 
0.7399415872 
0.7350068435 
0.7286175934 
0.7205949112 
0.7103206061 
0.6950860502 
0.2191751324 
0.2130262429 
0.2146372471 
0.2158030557 
0.2171356295 
0.2195035758 
0.225239198 
0.6503962628 
0.6474683605 
0.6394882302 
0.6257797641 
0.6033713603 
0.5608974918 
0.4351304826 
0.7334463726 
0.7301384288 
0.7254231251 
0.7192342768 
0.7112917174 
0.7008020481 
0.6848134988 
0.2130262429 
0.2000064901 
0.2000046607 
0.2000058801 
0.2000073237 
0.2000098584 
0.2000156286 
0.6442857375 
0.6421441968 
0.6347700897 
0.6218433799 
0.6000923562 
0.5578425896 
0.4304294906 
0.7235689914 
0.7204644434 
0.7160471493 
0.7102010695 
0.7025761119 
0.6922703682 
0.6761619602 
0.2146372471 
0.2000046607 
0.2 
0.2 
0.2 
0.2 
0.2 
0.6377893711 
0.6364188663 
0.6296150074 
0.6174423317 
0.5964229861 
0.5545534153 
0.4253178868 
0.7138169696 
0.7109640992 
0.706947442 
0.7016111122 
0.6945427006 
0.6847206128 
0.6687656992 
0.2158030557 
0.2000058801 
0.2 
0.2 
0.2 
0.2 
0.2 
0.6309600552 
0.630311658 
0.6241873005 
0.6128746564 
0.5927488012 
0.5515174906 
0.4205497617 
0.7041361107 
0.7015942617 
0.6980934555 
0.6934499558 
0.6871997396 
0.6781929121 
0.6626959071 
0.2171356295 
0.2000073237 
0.2 
0.2 
0.2 
0.2 
0.2 
0.6236928653 
0.623729388 
0.6185364798 
0.6083357285 
0.5893970326 
0.5492180581 
0.4170522244 
0.6943937167 
0.6922239654 
0.6893502892 
0.6855845343 
0.6804497184 
0.6727204237 
0.658306977 
0.2195035758 
0.2000098584 
0.2 
0.2 
0.2 
0.2 
0.2 
0.6156248336 
0.6163837865 
0.6125547493 
0.6038940563 
0.5866022778 
0.5480881207 
0.4159253629 
0.6843714522 
0.6826220097 
0.6804543241 
0.6777114742 
0.6739811304 
0.6681324319 
0.6561075106 
0.225239198 
0.2000156286 
0.2 
0.2 
0.2 
0.2 
0.2 
0.6056583878 
0.6074667992 
0.6057416796 
0.5993321576 
0.5843944412 
0.5484267038 
0.4183468533 
0.6737414682 
0.6724286049 
0.6709726464 
0.6692756897 
0.6670768972 
0.6636224103 
0.6559753042 
0.6503962628 
0.6442857375 
0.6377893711 
0.6309600552 
0.6236928653 
0.6156248336 
0.6056583878 
0.5983402275 
0.5977727834 
0.597653539 
0.5940596995 
0.5824126382 
0.5502465276 
0.4252962069 
0.6620131476 
0.6611073707 
0.6602635236 
0.6594098388 
0.6583553687 
0.6565672454 
0.6523056106 
0.6474683605 
0.6421441968 
0.6364188663 
0.630311658 
0.623729388 
0.6163837865 
0.6074667992 
0.5977727834 
0.5923720863 
0.590510267 
0.5883158463 
0.5801744543 
0.5531864776 
0.437236961 
0.6484045641 
0.6478427675 
0.6474559584 
0.6471657007 
0.6467888646 
0.6458952192 
0.6434374959 
0.6394882302 
0.6347700897 
0.6296150074 
0.6241873005 
0.6185364798 
0.6125547493 
0.6057416796 
0.597653539 
0.590510267 
0.5861338163 
0.583398129 
0.5777391715 
0.5567093255 
0.4540410925 
0.6314497548 
0.6311541898 
0.631065262 
0.6310826727 
0.6310096239 
0.6304752845 
0.6288245823 
0.6257797641 
0.6218433799 
0.6174423317 
0.6128746564 
0.6083357285 
0.6038940563 
0.5993321576 
0.5940596995 
0.5883158463 
0.583398129 
0.5798962966 
0.5755568496 
0.5603480483 
0.4750912664 
0.6076279757 
0.6075196678 
0.6075944616 
0.6077276863 
0.6077101266 
0.6072222677 
0.6058471773 
0.6033713603 
0.6000923562 
0.5964229861 
0.5927488012 
0.5893970326 
0.5866022778 
0.5843944412 
0.5824126382 
0.5801744543 
0.5777391715 
0.5755568496 
0.5729367697 
0.5633316025 
0.4990524805 
0.5652672793 
0.5652707953 
0.565410486 
0.5655321348 
0.5654094962 
0.564755312 
0.5632853328 
0.5608974918 
0.5578425896 
0.5545534153 
0.5515174906 
0.5492180581 
0.5480881207 
0.5484267038 
0.5502465276 
0.5531864776 
0.5567093255 
0.5603480483 
0.5633316025 
0.5616191508 
0.5219242609 
0.442967482 
0.442967083 
0.4430972541 
0.4431004417 
0.4426382009 
0.4413310188 
0.4388584473 
0.4351304826 
0.4304294906 
0.4253178868 
0.4205497617 
0.4170522244 
0.4159253629 
0.4183468533 
0.4252962069 
0.437236961 
0.4540410925 
0.4750912664 
0.4990524805 
0.5219242609 
0.5211592888 
SCALARS permeabilityx double 1
LOOKUP_TABLE default
1 
1 
1 
1 
1 
1 
1 
1 
1 
1 
1 
1 
1 
1 
1 
1 
1 
1 
1 
1 
1 
1 
1 
1 
1 
1 
1 
1 
1 
1 
1 
1 
1 
1 
1 
1 
1 
1 
1 
1 
1 
1 
1 
1 
1 
1 
1 
1 
1 
1 
1 
1 
1 
1 
1 
1 
1 
1 
1 
1 
1 
1 
1 
1 
1 
1 
1 
1 
1 
1 
1 
1 
1 
1 
1 
1 
1 
1 
1 
1 
1 
1 
1 
1 
1 
1 
1 
1 
1 
1 
1 
1 
1 
1 
1 
1 
1 
1 
1 
1 
1 
1 
1 
1 
1 
1 
1 
1 
1 
1 
1 
1 
1 
1 
1 
1 
1 
1 
1 
1 
1 
1 
1 
1 
1 
1 
1 
1 
1 
1 
1 
1 
1 
1 
1 
1 
1 
1 
1 
1 
1 
1 
1 
1 
1 
1 
1 
1 
1 
1 
1 
1 
1 
1 
0.001 
0.001 
0.001 
0.001 
0.001 
0.001 
0.001 
1 
1 
1 
1 
1 
1 
1 
1 
1 
1 
1 
1 
1 
1 
0.001 
0.001 
0.001 
0.001 
0.001 
0.001 
0.001 
1 
1 
1 
1 
1 
1 
1 
1 
1 
1 
1 
1 
1 
1 
0.001 
0.001 
0.001 
0.001 
0.001 
0.001 
0.001 
1 
1 
1 
1 
1 
1 
1 
1 
1 
1 
1 
1 
1 
1 
0.001 
0.001 
0.001 
0.001 
0.001 
0.001 
0.001 
1 
1 
1 
1 
1 
1 
1 
1 
1 
1 
1 
1 
1 
1 
0.001 
0.001 
0.001 
0.001 
0.001 
0.001 
0.001 
1 
1 
1 
1 
1 
1 
1 
1 
1 
1 
1 
1 
1 
1 
0.001 
0.001 
0.001 
0.001 
0.001 
0.001 
0.001 
1 
1 
1 
1 
1 
1 
1 
1 
1 
1 
1 
1 
1 
1 
0.001 
0.001 
0.001 
0.001 
0.001 
0.001 
0.001 
1 
1 
1 
1 
1 
1 
1 
1 
1 
1 
1 
1 
1 
1 
1 
1 
1 
1 
1 
1 
1 
1 
1 
1 
1 
1 
1 
1 
1 
1 
1 
1 
1 
1 
1 
1 
1 
1 
1 
1 
1 
1 
1 
1 
1 
1 
1 
1 
1 
1 
1 
1 
1 
1 
1 
1 
1 
1 
1 
1 
1 
1 
1 
1 
1 
1 
1 
1 
1 
1 
1 
1 
1 
1 
1 
1 
1 
1 
1 
1 
1 
1 
1 
1 
1 
1 
1 
1 
1 
1 
1 
1 
1 
1 
1 
1 
1 
1 
1 
1 
1 
1 
1 
1 
1 
1 
1 
1 
1 
1 
1 
1 
1 
1 
1 
1 
1 
1 
1 
1 
1 
1 
1 
1 
1 
1 
1 
1 
1 
1 
1 
1 
1 
1 
1 
1 
1 
1 
1 
1 
1 
1 
1 
1 
1 
1 
1 
1 
1 
1 
1 
1 
1 
1 
