# vtk DataFile Version 3.0
MOAB 5.4.1
ASCII
DATASET UNSTRUCTURED_GRID
POINTS 968 double
0 0 0
1 0 0
2 0 0
3 0 0
4 0 0
5 0 0
6 0 0
7 0 0
8 0 0
9 0 0
10 0 0
11 0 0
12 0 0
13 0 0
14 0 0
15 0 0
16 0 0
17 0 0
18 0 0
19 0 0
20 0 0
21 0 0
0 1 0
1 1 0
2 1 0
3 1 0
4 1 0
5 1 0
6 1 0
7 1 0
8 1 0
9 1 0
10 1 0
11 1 0
12 1 0
13 1 0
14 1 0
15 1 0
16 1 0
17 1 0
18 1 0
19 1 0
20 1 0
21 1 0
0 2 0
1 2 0
2 2 0
3 2 0
4 2 0
5 2 0
6 2 0
7 2 0
8 2 0
9 2 0
10 2 0
11 2 0
12 2 0
13 2 0
14 2 0
15 2 0
16 2 0
17 2 0
18 2 0
19 2 0
20 2 0
21 2 0
0 3 0
1 3 0
2 3 0
3 3 0
4 3 0
5 3 0
6 3 0
7 3 0
8 3 0
9 3 0
10 3 0
11 3 0
12 3 0
13 3 0
14 3 0
15 3 0
16 3 0
17 3 0
18 3 0
19 3 0
20 3 0
21 3 0
0 4 0
1 4 0
2 4 0
3 4 0
4 4 0
5 4 0
6 4 0
7 4 0
8 4 0
9 4 0
10 4 0
11 4 0
12 4 0
13 4 0
14 4 0
15 4 0
16 4 0
17 4 0
18 4 0
19 4 0
20 4 0
21 4 0
0 5 0
1 5 0
2 5 0
3 5 0
4 5 0
5 5 0
6 5 0
7 5 0
8 5 0
9 5 0
10 5 0
11 5 0
12 5 0
13 5 0
14 5 0
15 5 0
16 5 0
17 5 0
18 5 0
19 5 0
20 5 0
21 5 0
0 6 0
1 6 0
2 6 0
3 6 0
4 6 0
5 6 0
6 6 0
7 6 0
8 6 0
9 6 0
10 6 0
11 6 0
12 6 0
13 6 0
14 6 0
15 6 0
16 6 0
17 6 0
18 6 0
19 6 0
20 6 0
21 6 0
0 7 0
1 7 0
2 7 0
3 7 0
4 7 0
5 7 0
6 7 0
7 7 0
8 7 0
9 7 0
10 7 0
11 7 0
12 7 0
13 7 0
14 7 0
15 7 0
16 7 0
17 7 0
18 7 0
19 7 0
20 7 0
21 7 0
0 8 0
1 8 0
2 8 0
3 8 0
4 8 0
5 8 0
6 8 0
7 8 0
8 8 0
9 8 0
10 8 0
11 8 0
12 8 0
13 8 0
14 8 0
15 8 0
16 8 0
17 8 0
18 8 0
19 8 0
20 8 0
21 8 0
0 9 0
1 9 0
2 9 0
3 9 0
4 9 0
5 9 0
6 9 0
7 9 0
8 9 0
9 9 0
10 9 0
11 9 0
12 9 0
13 9 0
14 9 0
15 9 0
16 9 0
17 9 0
18 9 0
19 9 0
20 9 0
21 9 0
0 10 0
1 10 0
2 10 0
3 10 0
4 10 0
5 10 0
6 10 0
7 10 0
8 10 0
9 10 0
10 10 0
11 10 0
12 10 0
13 10 0
14 10 0
15 10 0
16 10 0
17 10 0
18 10 0
19 10 0
20 10 0
21 10 0
0 11 0
1 11 0
2 11 0
3 11 0
4 11 0
5 11 0
6 11 0
7 11 0
8 11 0
9 11 0
10 11 0
11 11 0
12 11 0
13 11 0
14 11 0
15 11 0
16 11 0
17 11 0
18 11 0
19 11 0
20 11 0
21 11 0
0 12 0
1 12 0
2 12 0
3 12 0
4 12 0
5 12 0
6 12 0
7 12 0
8 12 0
9 12 0
10 12 0
11 12 0
12 12 0
13 12 0
14 12 0
15 12 0
16 12 0
17 12 0
18 12 0
19 12 0
20 12 0
21 12 0
0 13 0
1 13 0
2 13 0
3 13 0
4 13 0
5 13 0
6 13 0
7 13 0
8 13 0
9 13 0
10 13 0
11 13 0
12 13 0
13 13 0
14 13 0
15 13 0
16 13 0
17 13 0
18 13 0
19 13 0
20 13 0
21 13 0
0 14 0
1 14 0
2 14 0
3 14 0
4 14 0
5 14 0
6 14 0
7 14 0
8 14 0
9 14 0
10 14 0
11 14 0
12 14 0
13 14 0
14 14 0
15 14 0
16 14 0
17 14 0
18 14 0
19 14 0
20 14 0
21 14 0
0 15 0
1 15 0
2 15 0
3 15 0
4 15 0
5 15 0
6 15 0
7 15 0
8 15 0
9 15 0
10 15 0
11 15 0
12 15 0
13 15 0
14 15 0
15 15 0
16 15 0
17 15 0
18 15 0
19 15 0
20 15 0
21 15 0
0 16 0
1 16 0
2 16 0
3 16 0
4 16 0
5 16 0
6 16 0
7 16 0
8 16 0
9 16 0
10 16 0
11 16 0
12 16 0
13 16 0
14 16 0
15 16 0
16 16 0
17 16 0
18 16 0
19 16 0
20 16 0
21 16 0
0 17 0
1 17 0
2 17 0
3 17 0
4 17 0
5 17 0
6 17 0
7 17 0
8 17 0
9 17 0
10 17 0
11 17 0
12 17 0
13 17 0
14 17 0
15 17 0
16 17 0
17 17 0
18 17 0
19 17 0
20 17 0
21 17 0
0 18 0
1 18 0
2 18 0
3 18 0
4 18 0
5 18 0
6 18 0
7 18 0
8 18 0
9 18 0
10 18 0
11 18 0
12 18 0
13 18 0
14 18 0
15 18 0
16 18 0
17 18 0
18 18 0
19 18 0
20 18 0
21 18 0
0 19 0
1 19 0
2 19 0
3 19 0
4 19 0
5 19 0
6 19 0
7 19 0
8 19 0
9 19 0
10 19 0
11 19 0
12 19 0
13 19 0
14 19 0
15 19 0
16 19 0
17 19 0
18 19 0
19 19 0
20 19 0
21 19 0
0 20 0
1 20 0
2 20 0
3 20 0
4 20 0
5 20 0
6 20 0
7 20 0
8 20 0
9 20 0
10 20 0
11 20 0
12 20 0
13 20 0
14 20 0
15 20 0
16 20 0
17 20 0
18 20 0
19 20 0
20 20 0
21 20 0
0 21 0
1 21 0
2 21 0
3 21 0
4 21 0
5 21 0
6 21 0
7 21 0
8 21 0
9 21 0
10 21 0
11 21 0
12 21 0
13 21 0
14 21 0
15 21 0
16 21 0
17 21 0
18 21 0
19 21 0
20 21 0
21 21 0
0 0 1
1 0 1
2 0 1
3 0 1
4 0 1
5 0 1
6 0 1
7 0 1
8 0 1
9 0 1
10 0 1
11 0 1
12 0 1
13 0 1
14 0 1
15 0 1
16 0 1
17 0 1
18 0 1
19 0 1
20 0 1
21 0 1
0 1 1
1 1 1
2 1 1
3 1 1
4 1 1
5 1 1
6 1 1
7 1 1
8 1 1
9 1 1
10 1 1
11 1 1
12 1 1
13 1 1
14 1 1
15 1 1
16 1 1
17 1 1
18 1 1
19 1 1
20 1 1
21 1 1
0 2 1
1 2 1
2 2 1
3 2 1
4 2 1
5 2 1
6 2 1
7 2 1
8 2 1
9 2 1
10 2 1
11 2 1
12 2 1
13 2 1
14 2 1
15 2 1
16 2 1
17 2 1
18 2 1
19 2 1
20 2 1
21 2 1
0 3 1
1 3 1
2 3 1
3 3 1
4 3 1
5 3 1
6 3 1
7 3 1
8 3 1
9 3 1
10 3 1
11 3 1
12 3 1
13 3 1
14 3 1
15 3 1
16 3 1
17 3 1
18 3 1
19 3 1
20 3 1
21 3 1
0 4 1
1 4 1
2 4 1
3 4 1
4 4 1
5 4 1
6 4 1
7 4 1
8 4 1
9 4 1
10 4 1
11 4 1
12 4 1
13 4 1
14 4 1
15 4 1
16 4 1
17 4 1
18 4 1
19 4 1
20 4 1
21 4 1
0 5 1
1 5 1
2 5 1
3 5 1
4 5 1
5 5 1
6 5 1
7 5 1
8 5 1
9 5 1
10 5 1
11 5 1
12 5 1
13 5 1
14 5 1
15 5 1
16 5 1
17 5 1
18 5 1
19 5 1
20 5 1
21 5 1
0 6 1
1 6 1
2 6 1
3 6 1
4 6 1
5 6 1
6 6 1
7 6 1
8 6 1
9 6 1
10 6 1
11 6 1
12 6 1
13 6 1
14 6 1
15 6 1
16 6 1
17 6 1
18 6 1
19 6 1
20 6 1
21 6 1
0 7 1
1 7 1
2 7 1
3 7 1
4 7 1
5 7 1
6 7 1
7 7 1
8 7 1
9 7 1
10 7 1
11 7 1
12 7 1
13 7 1
14 7 1
15 7 1
16 7 1
17 7 1
18 7 1
19 7 1
20 7 1
21 7 1
0 8 1
1 8 1
2 8 1
3 8 1
4 8 1
5 8 1
6 8 1
7 8 1
8 8 1
9 8 1
10 8 1
11 8 1
12 8 1
13 8 1
14 8 1
15 8 1
16 8 1
17 8 1
18 8 1
19 8 1
20 8 1
21 8 1
0 9 1
1 9 1
2 9 1
3 9 1
4 9 1
5 9 1
6 9 1
7 9 1
8 9 1
9 9 1
10 9 1
11 9 1
12 9 1
13 9 1
14 9 1
15 9 1
16 9 1
17 9 1
18 9 1
19 9 1
20 9 1
21 9 1
0 10 1
1 10 1
2 10 1
3 10 1
4 10 1
5 10 1
6 10 1
7 10 1
8 10 1
9 10 1
10 10 1
11 10 1
12 10 1
13 10 1
14 10 1
15 10 1
16 10 1
17 10 1
18 10 1
19 10 1
20 10 1
21 10 1
0 11 1
1 11 1
2 11 1
3 11 1
4 11 1
5 11 1
6 11 1
7 11 1
8 11 1
9 11 1
10 11 1
11 11 1
12 11 1
13 11 1
14 11 1
15 11 1
16 11 1
17 11 1
18 11 1
19 11 1
20 11 1
21 11 1
0 12 1
1 12 1
2 12 1
3 12 1
4 12 1
5 12 1
6 12 1
7 12 1
8 12 1
9 12 1
10 12 1
11 12 1
12 12 1
13 12 1
14 12 1
15 12 1
16 12 1
17 12 1
18 12 1
19 12 1
20 12 1
21 12 1
0 13 1
1 13 1
2 13 1
3 13 1
4 13 1
5 13 1
6 13 1
7 13 1
8 13 1
9 13 1
10 13 1
11 13 1
12 13 1
13 13 1
14 13 1
15 13 1
16 13 1
17 13 1
18 13 1
19 13 1
20 13 1
21 13 1
0 14 1
1 14 1
2 14 1
3 14 1
4 14 1
5 14 1
6 14 1
7 14 1
8 14 1
9 14 1
10 14 1
11 14 1
12 14 1
13 14 1
14 14 1
15 14 1
16 14 1
17 14 1
18 14 1
19 14 1
20 14 1
21 14 1
0 15 1
1 15 1
2 15 1
3 15 1
4 15 1
5 15 1
6 15 1
7 15 1
8 15 1
9 15 1
10 15 1
11 15 1
12 15 1
13 15 1
14 15 1
15 15 1
16 15 1
17 15 1
18 15 1
19 15 1
20 15 1
21 15 1
0 16 1
1 16 1
2 16 1
3 16 1
4 16 1
5 16 1
6 16 1
7 16 1
8 16 1
9 16 1
10 16 1
11 16 1
12 16 1
13 16 1
14 16 1
15 16 1
16 16 1
17 16 1
18 16 1
19 16 1
20 16 1
21 16 1
0 17 1
1 17 1
2 17 1
3 17 1
4 17 1
5 17 1
6 17 1
7 17 1
8 17 1
9 17 1
10 17 1
11 17 1
12 17 1
13 17 1
14 17 1
15 17 1
16 17 1
17 17 1
18 17 1
19 17 1
20 17 1
21 17 1
0 18 1
1 18 1
2 18 1
3 18 1
4 18 1
5 18 1
6 18 1
7 18 1
8 18 1
9 18 1
10 18 1
11 18 1
12 18 1
13 18 1
14 18 1
15 18 1
16 18 1
17 18 1
18 18 1
19 18 1
20 18 1
21 18 1
0 19 1
1 19 1
2 19 1
3 19 1
4 19 1
5 19 1
6 19 1
7 19 1
8 19 1
9 19 1
10 19 1
11 19 1
12 19 1
13 19 1
14 19 1
15 19 1
16 19 1
17 19 1
18 19 1
19 19 1
20 19 1
21 19 1
0 20 1
1 20 1
2 20 1
3 20 1
4 20 1
5 20 1
6 20 1
7 20 1
8 20 1
9 20 1
10 20 1
11 20 1
12 20 1
13 20 1
14 20 1
15 20 1
16 20 1
17 20 1
18 20 1
19 20 1
20 20 1
21 20 1
0 21 1
1 21 1
2 21 1
3 21 1
4 21 1
5 21 1
6 21 1
7 21 1
8 21 1
9 21 1
10 21 1
11 21 1
12 21 1
13 21 1
14 21 1
15 21 1
16 21 1
17 21 1
18 21 1
19 21 1
20 21 1
21 21 1
CELLS 441 3969
8 0 1 23 22 484 485 507 506
8 22 23 45 44 506 507 529 528
8 44 45 67 66 528 529 551 550
8 66 67 89 88 550 551 573 572
8 88 89 111 110 572 573 595 594
8 110 111 133 132 594 595 617 616
8 132 133 155 154 616 617 639 638
8 154 155 177 176 638 639 661 660
8 176 177 199 198 660 661 683 682
8 198 199 221 220 682 683 705 704
8 220 221 243 242 704 705 727 726
8 242 243 265 264 726 727 749 748
8 264 265 287 286 748 749 771 770
8 286 287 309 308 770 771 793 792
8 308 309 331 330 792 793 815 814
8 330 331 353 352 814 815 837 836
8 352 353 375 374 836 837 859 858
8 374 375 397 396 858 859 881 880
8 396 397 419 418 880 881 903 902
8 418 419 441 440 902 903 925 924
8 440 441 463 462 924 925 947 946
8 1 2 24 23 485 486 508 507
8 23 24 46 45 507 508 530 529
8 45 46 68 67 529 530 552 551
8 67 68 90 89 551 552 574 573
8 89 90 112 111 573 574 596 595
8 111 112 134 133 595 596 618 617
8 133 134 156 155 617 618 640 639
8 155 156 178 177 639 640 662 661
8 177 178 200 199 661 662 684 683
8 199 200 222 221 683 684 706 705
8 221 222 244 243 705 706 728 727
8 243 244 266 265 727 728 750 749
8 265 266 288 287 749 750 772 771
8 287 288 310 309 771 772 794 793
8 309 310 332 331 793 794 816 815
8 331 332 354 353 815 816 838 837
8 353 354 376 375 837 838 860 859
8 375 376 398 397 859 860 882 881
8 397 398 420 419 881 882 904 903
8 419 420 442 441 903 904 926 925
8 441 442 464 463 925 926 948 947
8 2 3 25 24 486 487 509 508
8 24 25 47 46 508 509 531 530
8 46 47 69 68 530 531 553 552
8 68 69 91 90 552 553 575 574
8 90 91 113 112 574 575 597 596
8 112 113 135 134 596 597 619 618
8 134 135 157 156 618 619 641 640
8 156 157 179 178 640 641 663 662
8 178 179 201 200 662 663 685 684
8 200 201 223 222 684 685 707 706
8 222 223 245 244 706 707 729 728
8 244 245 267 266 728 729 751 750
8 266 267 289 288 750 751 773 772
8 288 289 311 310 772 773 795 794
8 310 311 333 332 794 795 817 816
8 332 333 355 354 816 817 839 838
8 354 355 377 376 838 839 861 860
8 376 377 399 398 860 861 883 882
8 398 399 421 420 882 883 905 904
8 420 421 443 442 904 905 927 926
8 442 443 465 464 926 927 949 948
8 3 4 26 25 487 488 510 509
8 25 26 48 47 509 510 532 531
8 47 48 70 69 531 532 554 553
8 69 70 92 91 553 554 576 575
8 91 92 114 113 575 576 598 597
8 113 114 136 135 597 598 620 619
8 135 136 158 157 619 620 642 641
8 157 158 180 179 641 642 664 663
8 179 180 202 201 663 664 686 685
8 201 202 224 223 685 686 708 707
8 223 224 246 245 707 708 730 729
8 245 246 268 267 729 730 752 751
8 267 268 290 289 751 752 774 773
8 289 290 312 311 773 774 796 795
8 311 312 334 333 795 796 818 817
8 333 334 356 355 817 818 840 839
8 355 356 378 377 839 840 862 861
8 377 378 400 399 861 862 884 883
8 399 400 422 421 883 884 906 905
8 421 422 444 443 905 906 928 927
8 443 444 466 465 927 928 950 949
8 4 5 27 26 488 489 511 510
8 26 27 49 48 510 511 533 532
8 48 49 71 70 532 533 555 554
8 70 71 93 92 554 555 577 576
8 92 93 115 114 576 577 599 598
8 114 115 137 136 598 599 621 620
8 136 137 159 158 620 621 643 642
8 158 159 181 180 642 643 665 664
[...]
POINT_DATA 968
SCALARS GLOBAL_ID int 1
LOOKUP_TABLE default
-1 
-1 
-1 
-1 
-1 
-1 
-1 
-1 
-1 
-1 
-1 
-1 
-1 
-1 
-1 
-1 
-1 
-1 
-1 
-1 
-1 
-1 
-1 
-1 
-1 
-1 
-1 
-1 
-1 
-1 
-1 
-1 
-1 
-1 
-1 
-1 
-1 
-1 
-1 
-1 
-1 
-1 
-1 
-1 
-1 
-1 
-1 
-1 
-1 
-1 
-1 
-1 
-1 
-1 
-1 
-1 
-1 
-1 
-1 
-1 
-1 
-1 
-1 
-1 
-1 
-1 
-1 
-1 
-1 
-1 
-1 
-1 
-1 
-1 
-1 
-1 
-1 
-1 
-1 
-1 
-1 
-1 
-1 
-1 
-1 
-1 
-1 
-1 
-1 
-1 
-1 
-1 
-1 
-1 
-1 
-1 
-1 
-1 
-1 
-1 
-1 
-1 
-1 
-1 
-1 
-1 
-1 
-1 
-1 
-1 
-1 
-1 
-1 
-1 
-1 
-1 
-1 
-1 
-1 
-1 
-1 
-1 
-1 
-1 
-1 
-1 
-1 
-1 
-1 
-1 
-1 
-1 
-1 
-1 
-1 
-1 
-1 
-1 
-1 
-1 
-1 
-1 
-1 
-1 
-1 
-1 
-1 
-1 
-1 
-1 
-1 
-1 
-1 
-1 
-1 
-1 
-1 
-1 
-1 
-1 
-1 
-1 
-1 
-1 
-1 
-1 
-1 
-1 
-1 
-1 
-1 
-1 
-1 
-1 
-1 
-1 
-1 
-1 
-1 
-1 
-1 
-1 
-1 
-1 
-1 
-1 
-1 
-1 
-1 
-1 
-1 
-1 
-1 
-1 
-1 
-1 
-1 
-1 
-1 
-1 
-1 
-1 
-1 
-1 
-1 
-1 
-1 
-1 
-1 
-1 
-1 
-1 
-1 
-1 
-1 
-1 
-1 
-1 
-1 
-1 
-1 
-1 
-1 
-1 
-1 
-1 
-1 
-1 
-1 
-1 
-1 
-1 
-1 
-1 
-1 
-1 
-1 
-1 
-1 
-1 
-1 
-1 
-1 
-1 
-1 
-1 
-1 
-1 
-1 
-1 
-1 
-1 
-1 
-1 
-1 
-1 
-1 
-1 
-1 
-1 
-1 
-1 
-1 
-1 
-1 
-1 
-1 
-1 
-1 
-1 
-1 
-1 
-1 
-1 
-1 
-1 
-1 
-1 
-1 
-1 
-1 
-1 
-1 
-1 
-1 
-1 
-1 
-1 
-1 
-1 
-1 
-1 
-1 
-1 
-1 
-1 
-1 
-1 
-1 
-1 
-1 
-1 
-1 
-1 
-1 
-1 
-1 
-1 
-1 
-1 
-1 
-1 
-1 
-1 
-1 
-1 
-1 
-1 
-1 
-1 
-1 
-1 
-1 
-1 
-1 
-1 
-1 
-1 
-1 
-1 
-1 
-1 
-1 
-1 
-1 
-1 
-1 
-1 
-1 
-1 
-1 
-1 
-1 
-1 
-1 
-1 
-1 
-1 
-1 
-1 
-1 
-1 
-1 
-1 
-1 
-1 
-1 
-1 
-1 
-1 
-1 
-1 
-1 
-1 
-1 
-1 
-1 
-1 
-1 
-1 
-1 
-1 
-1 
-1 
-1 
-1 
-1 
-1 
-1 
-1 
-1 
-1 
-1 
-1 
-1 
-1 
-1 
-1 
-1 
-1 
-1 
-1 
-1 
-1 
-1 
-1 
-1 
-1 
-1 
-1 
-1 
-1 
-1 
-1 
-1 
-1 
-1 
-1 
-1 
-1 
-1 
-1 
-1 
-1 
-1 
-1 
-1 
-1 
-1 
-1 
-1 
-1 
-1 
-1 
-1 
-1 
-1 
-1 
-1 
-1 
-1 
-1 
-1 
-1 
-1 
-1 
-1 
-1 
-1 
-1 
-1 
-1 
-1 
-1 
-1 
-1 
-1 
-1 
-1 
-1 
-1 
-1 
-1 
-1 
-1 
-1 
-1 
-1 
-1 
-1 
-1 
-1 
-1 
-1 
-1 
-1 
-1 
-1 
-1 
-1 
-1 
-1 
-1 
-1 
-1 
-1 
-1 
-1 
-1 
-1 
-1 
-1 
-1 
-1 
-1 
-1 
-1 
-1 
-1 
-1 
-1 
-1 
-1 
-1 
-1 
-1 
-1 
-1 
-1 
-1 
-1 
-1 
-1 
-1 
-1 
-1 
-1 
-1 
-1 
-1 
-1 
-1 
-1 
-1 
-1 
-1 
-1 
-1 
-1 
-1 
-1 
-1 
-1 
-1 
-1 
-1 
-1 
-1 
-1 
-1 
-1 
-1 
-1 
-1 
-1 
-1 
-1 
-1 
-1 
-1 
-1 
-1 
-1 
-1 
-1 
-1 
-1 
-1 
-1 
-1 
-1 
-1 
-1 
-1 
-1 
-1 
-1 
-1 
-1 
-1 
-1 
-1 
-1 
-1 
-1 
-1 
-1 
-1 
-1 
-1 
-1 
-1 
-1 
-1 
-1 
-1 
-1 
-1 
-1 
-1 
-1 
-1 
-1 
-1 
-1 
-1 
-1 
-1 
-1 
-1 
-1 
-1 
-1 
-1 
-1 
-1 
-1 
-1 
-1 
-1 
-1 
-1 
-1 
-1 
-1 
-1 
-1 
-1 
-1 
-1 
-1 
-1 
-1 
-1 
-1 
-1 
-1 
-1 
-1 
-1 
-1 
-1 
-1 
-1 
-1 
-1 
-1 
-1 
-1 
-1 
-1 
-1 
-1 
-1 
-1 
-1 
-1 
-1 
-1 
-1 
-1 
-1 
-1 
-1 
-1 
-1 
-1 
-1 
-1 
-1 
-1 
-1 
-1 
-1 
-1 
-1 
-1 
-1 
-1 
-1 
-1 
-1 
-1 
-1 
-1 
-1 
-1 
-1 
-1 
-1 
-1 
-1 
-1 
-1 
-1 
-1 
-1 
-1 
-1 
-1 
-1 
-1 
-1 
-1 
-1 
-1 
-1 
-1 
-1 
-1 
-1 
-1 
-1 
-1 
-1 
-1 
-1 
-1 
-1 
-1 
-1 
-1 
-1 
-1 
-1 
-1 
-1 
-1 
-1 
-1 
-1 
-1 
-1 
-1 
-1 
-1 
-1 
-1 
-1 
-1 
-1 
-1 
-1 
-1 
-1 
-1 
-1 
-1 
-1 
-1 
-1 
-1 
-1 
-1 
-1 
-1 
-1 
-1 
-1 
-1 
-1 
-1 
-1 
-1 
-1 
-1 
-1 
-1 
-1 
-1 
-1 
-1 
-1 
-1 
-1 
-1 
-1 
-1 
-1 
-1 
-1 
-1 
-1 
-1 
-1 
-1 
-1 
-1 
-1 
-1 
-1 
-1 
-1 
-1 
-1 
-1 
-1 
-1 
-1 
-1 
-1 
-1 
-1 
-1 
-1 
-1 
-1 
-1 
-1 
-1 
-1 
-1 
-1 
-1 
-1 
-1 
-1 
-1 
-1 
-1 
-1 
-1 
-1 
-1 
-1 
-1 
-1 
-1 
-1 
-1 
-1 
-1 
-1 
-1 
-1 
-1 
-1 
-1 
-1 
-1 
-1 
-1 
-1 
-1 
-1 
-1 
-1 
-1 
-1 
-1 
-1 
-1 
-1 
-1 
-1 
-1 
-1 
-1 
-1 
-1 
-1 
-1 
-1 
-1 
-1 
-1 
-1 
-1 
-1 
-1 
-1 
-1 
-1 
-1 
-1 
-1 
-1 
-1 
-1 
-1 
-1 
-1 
-1 
-1 
-1 
-1 
-1 
-1 
-1 
-1 
-1 
-1 
-1 
-1 
-1 
-1 
-1 
-1 
-1 
-1 
-1 
-1 
-1 
-1 
-1 
-1 
-1 
-1 
-1 
-1 
-1 
-1 
-1 
-1 
-1 
-1 
-1 
-1 
-1 
-1 
-1 
-1 
-1 
-1 
-1 
-1 
-1 
-1 
-1 
-1 
-1 
-1 
-1 
-1 
-1 
-1 
-1 
-1 
-1 
-1 
-1 
-1 
-1 
-1 
-1 
-1 
-1 
-1 
-1 
-1 
-1 
-1 
-1 
-1 
-1 
-1 
-1 
-1 
-1 
-1 
-1 
-1 
-1 
-1 
-1 
-1 
-1 
-1 
-1 
-1 
-1 
-1 
-1 
-1 
-1 
-1 
-1 
-1 
-1 
-1 
-1 
-1 
-1 
-1 
-1 
-1 
-1 
-1 
CELL_DATA 441
SCALARS GLOBAL_ID int 1
LOOKUP_TABLE default
-1 
-1 
-1 
-1 
-1 
-1 
-1 
-1 
-1 
-1 
-1 
-1 
-1 
-1 
-1 
-1 
-1 
-1 
-1 
-1 
-1 
-1 
-1 
-1 
-1 
-1 
-1 
-1 
-1 
-1 
-1 
-1 
-1 
-1 
-1 
-1 
-1 
-1 
-1 
-1 
-1 
-1 
-1 
-1 
-1 
-1 
-1 
-1 
-1 
-1 
-1 
-1 
-1 
-1 
-1 
-1 
-1 
-1 
-1 
-1 
-1 
-1 
-1 
-1 
-1 
-1 
-1 
-1 
-1 
-1 
-1 
-1 
-1 
-1 
-1 
-1 
-1 
-1 
-1 
-1 
-1 
-1 
-1 
-1 
-1 
-1 
-1 
-1 
-1 
-1 
-1 
-1 
-1 
-1 
-1 
-1 
-1 
-1 
-1 
-1 
-1 
-1 
-1 
-1 
-1 
-1 
-1 
-1 
-1 
-1 
-1 
-1 
-1 
-1 
-1 
-1 
-1 
-1 
-1 
-1 
-1 
-1 
-1 
-1 
-1 
-1 
-1 
-1 
-1 
-1 
-1 
-1 
-1 
-1 
-1 
-1 
-1 
-1 
-1 
-1 
-1 
-1 
-1 
-1 
-1 
-1 
-1 
-1 
-1 
-1 
-1 
-1 
-1 
-1 
-1 
-1 
-1 
-1 
-1 
-1 
-1 
-1 
-1 
-1 
-1 
-1 
-1 
-1 
-1 
-1 
-1 
-1 
-1 
-1 
-1 
-1 
-1 
-1 
-1 
-1 
-1 
-1 
-1 
-1 
-1 
-1 
-1 
-1 
-1 
-1 
-1 
-1 
-1 
-1 
-1 
-1 
-1 
-1 
-1 
-1 
-1 
-1 
-1 
-1 
-1 
-1 
-1 
-1 
-1 
-1 
-1 
-1 
-1 
-1 
-1 
-1 
-1 
-1 
-1 
-1 
-1 
-1 
-1 
-1 
-1 
-1 
-1 
-1 
-1 
-1 
-1 
-1 
-1 
-1 
-1 
-1 
-1 
-1 
-1 
-1 
-1 
-1 
-1 
-1 
-1 
-1 
-1 
-1 
-1 
-1 
-1 
-1 
-1 
-1 
-1 
-1 
-1 
-1 
-1 
-1 
-1 
-1 
-1 
-1 
-1 
-1 
-1 
-1 
-1 
-1 
-1 
-1 
-1 
-1 
-1 
-1 
-1 
-1 
-1 
-1 
-1 
-1 
-1 
-1 
-1 
-1 
-1 
-1 
-1 
-1 
-1 
-1 
-1 
-1 
-1 
-1 
-1 
-1 
-1 
-1 
-1 
-1 
-1 
-1 
-1 
-1 
-1 
-1 
-1 
-1 
-1 
-1 
-1 
-1 
-1 
-1 
-1 
-1 
-1 
-1 
-1 
-1 
-1 
-1 
-1 
-1 
-1 
-1 
-1 
-1 
-1 
-1 
-1 
-1 
-1 
-1 
-1 
-1 
-1 
-1 
-1 
-1 
-1 
-1 
-1 
-1 
-1 
-1 
-1 
-1 
-1 
-1 
-1 
-1 
-1 
-1 
-1 
-1 
-1 
-1 
-1 
-1 
-1 
-1 
-1 
-1 
-1 
-1 
-1 
-1 
-1 
-1 
-1 
-1 
-1 
-1 
-1 
-1 
-1 
-1 
-1 
-1 
-1 
-1 
-1 
-1 
-1 
-1 
-1 
-1 
-1 
-1 
-1 
-1 
-1 
-1 
-1 
-1 
-1 
-1 
-1 
-1 
-1 
-1 
-1 
-1 
-1 
-1 
-1 
-1 
-1 
-1 
-1 
-1 
-1 
-1 
-1 
-1 
-1 
-1 
-1 
-1 
-1 
-1 
-1 
-1 
-1 
-1 
-1 
-1 
-1 
-1 
-1 
-1 
-1 
-1 
-1 
-1 
-1 
-1 
-1 
SCALARS pressure double 1
LOOKUP_TABLE default
100 
92.98525803 
88.65454544 
85.58273846 
83.18158848 
81.17423231 
79.41170259 
77.80531886 
76.29970608 
74.86139978 
73.47349461 
72.13271536 
70.84740784 
69.63542092 
68.52085758 
67.52916321 
66.68181506 
65.99386689 
65.47411362 
65.1260351 
64.9481202 
92.98525803 
90.16835721 
87.30987071 
84.83654847 
82.71931279 
80.86647934 
79.19721003 
77.65004634 
76.1811475 
74.76249941 
73.38020758 
72.03307763 
70.73163503 
69.49702758 
68.35830424 
67.34622883 
66.48468052 
65.78831886 
65.26429301 
64.9143843 
64.73586194 
88.65454544 
87.30987071 
85.5045056 
83.66418213 
81.92738877 
80.31430442 
78.8036786 
77.36303562 
75.96187667 
74.57937672 
73.20611615 
71.84401253 
70.50691834 
69.22204485 
68.02960562 
66.97429286 
66.08467565 
65.37308351 
64.84217088 
64.48977854 
64.3106163 
85.58273846 
84.83654847 
83.66418213 
82.32252716 
80.94976056 
79.60123848 
78.28506805 
76.98449854 
75.67463427 
74.34008977 
72.9760006 
71.5868302 
70.18837263 
68.81429585 
67.52453129 
66.39831762 
65.46900009 
64.73979398 
64.20328193 
63.85027481 
63.67156632 
83.18158848 
82.71931279 
81.92738877 
80.94976056 
79.88885913 
78.79982466 
77.69774949 
76.56485453 
75.36413451 
74.08457979 
72.72706626 
71.29662276 
69.80447423 
68.28238561 
66.81698272 
65.5872683 
64.61560998 
63.87640756 
63.34258332 
62.99474124 
62.81917346 
81.17423231 
80.86647934 
80.31430442 
79.60123848 
78.79982466 
77.95782573 
77.09016534 
76.16437167 
75.0860508 
73.8625726 
72.50827229 
71.0267295 
69.41029414 
67.65453747 
65.83526257 
64.48022524 
63.49224672 
62.77025096 
62.25759897 
61.92526757 
61.75711799 
79.41170259 
79.19721003 
78.8036786 
78.28506805 
77.69774949 
77.09016534 
76.491629 
75.8695106 
74.90833971 
73.72837412 
72.37515405 
70.85134214 
69.11601638 
67.05160484 
64.35139665 
62.96858054 
62.06560534 
61.41750144 
60.95414552 
60.6502657 
60.49427278 
77.80531886 
77.65004634 
77.36303562 
76.98449854 
76.56485453 
76.16437167 
75.8695106 
75.28182319 
73.95662168 
72.54133313 
70.97304413 
69.20597204 
67.1035051 
64.22031916 
61.51198305 
60.94004448 
60.34731889 
59.84318142 
59.45348877 
59.18670661 
59.04539705 
76.29970608 
76.1811475 
75.96187667 
75.67463427 
75.36413451 
75.0860508 
74.90833971 
73.95662168 
72.04147975 
70.20940315 
68.29798945 
66.21867923 
63.83744594 
60.95159097 
59.18753483 
58.89559633 
58.50405827 
58.11810732 
57.79279107 
57.55795847 
57.42869815 
74.86139978 
74.76249941 
74.57937672 
74.34008977 
74.08457979 
73.8625726 
73.72837412 
72.54133313 
70.20940315 
68.07030237 
65.93123782 
63.70308651 
61.28648684 
58.59124718 
57.10545376 
56.91429542 
56.61899753 
56.29637358 
56.00494056 
55.78483171 
55.65983921 
73.47349461 
73.38020758 
73.20611615 
72.9760006 
72.72706626 
72.50827229 
72.37515405 
70.97304413 
68.29798945 
65.93123782 
63.65362378 
61.37600975 
59.01426051 
56.5044188 
55.16827297 
55.00078629 
54.72505238 
54.40746117 
54.10929138 
53.87837984 
53.74579671 
72.13271536 
72.03307763 
71.84401253 
71.5868302 
71.29662276 
71.0267295 
70.85134214 
69.20597204 
66.21867923 
63.70308651 
61.37600975 
59.13306819 
56.89012664 
54.57737075 
53.35418841 
53.15909085 
52.83655159 
52.46291063 
52.10977211 
51.83546853 
51.67973943 
70.84740784 
70.73163503 
70.50691834 
70.18837263 
69.80447423 
69.41029414 
69.11601638 
67.1035051 
63.83744594 
61.28648684 
59.01426051 
56.89012664 
54.83580711 
52.78148757 
51.69192123 
51.408049 
50.96225835 
50.46109803 
49.99427424 
49.635216 
49.43611685 
69.63542092 
69.49702758 
69.22204485 
68.81429585 
68.28238561 
67.65453747 
67.05160484 
64.22031916 
60.95159097 
58.59124718 
56.5044188 
54.57737075 
52.78148757 
51.10824059 
50.27078047 
49.78134827 
49.10556766 
48.38727711 
47.73289991 
47.23472857 
46.96451735 
68.52085758 
68.35830424 
68.02960562 
67.52453129 
66.81698272 
65.83526257 
64.35139665 
61.51198305 
59.18753483 
57.10545376 
55.16827297 
53.35418841 
51.69192123 
50.27078047 
49.29607242 
48.30165991 
47.25206568 
46.21050432 
45.27584556 
44.56361628 
44.18062161 
67.52916321 
67.34622883 
66.97429286 
66.39831762 
65.5872683 
64.48022524 
62.96858054 
60.94004448 
58.89559633 
56.91429542 
55.00078629 
53.15909085 
51.408049 
49.78134827 
48.30165991 
46.83583344 
45.34883749 
43.88580173 
42.55526699 
41.51769356 
40.95133949 
66.68181506 
66.48468052 
66.08467565 
65.46900009 
64.61560998 
63.49224672 
62.06560534 
60.34731889 
58.50405827 
56.61899753 
54.72505238 
52.83655159 
50.96225835 
49.10556766 
47.25206568 
45.34883749 
43.37818699 
41.38523849 
39.49880026 
37.95226688 
37.06623276 
65.99386689 
65.78831886 
65.37308351 
64.73979398 
63.87640756 
62.77025096 
61.41750144 
59.84318142 
58.11810732 
56.29637358 
54.40746117 
52.46291063 
50.46109803 
48.38727711 
46.21050432 
43.88580173 
41.38523849 
38.73296454 
36.05753223 
33.67610549 
32.17316586 
65.47411362 
65.26429301 
64.84217088 
64.20328193 
63.34258332 
62.25759897 
60.95414552 
59.45348877 
57.79279107 
56.00494056 
54.10929138 
52.10977211 
49.99427424 
47.73289991 
45.27584556 
42.55526699 
39.49880026 
36.05753223 
32.27569004 
28.47016964 
25.61943336 
65.1260351 
64.9143843 
64.48977854 
63.85027481 
62.99474124 
61.92526757 
60.6502657 
59.18670661 
57.55795847 
55.78483171 
53.87837984 
51.83546853 
49.635216 
47.23472857 
44.56361628 
41.51769356 
37.95226688 
33.67610549 
28.47016964 
22.25870462 
16.02353425 
64.9481202 
64.73586194 
64.3106163 
63.67156632 
62.81917346 
61.75711799 
60.49427278 
59.04539705 
57.42869815 
55.65983921 
53.74579671 
51.67973943 
49.43611685 
46.96451735 
44.18062161 
40.95133949 
37.06623276 
32.17316586 
25.61943336 
16.02353425 
0 
SCALARS saturation double 1
LOOKUP_TABLE default
0.8 
0.7943792345 
0.7885223797 
0.7812905374 
0.7729466505 
0.7638177376 
0.7542123868 
0.7443919228 
0.7345504349 
0.7248008491 
0.7151717672 
0.7056115552 
0.6959909806 
0.6860964419 
0.6756070547 
0.6640436723 
0.6506465337 
0.6340030518 
0.6107520196 
0.5698074593 
0.4520061051 
0.7943792345 
0.7900009402 
0.7842217635 
0.7771459227 
0.7689982907 
0.7600610457 
0.7506270862 
0.7409659392 
0.7312927806 
0.7217424354 
0.7123607788 
0.7031070665 
0.6938537228 
0.6843743528 
0.6743164062 
0.663155412 
0.650098319 
0.6337181431 
0.6106529856 
0.5698220535 
0.4520348233 
0.7885223797 
0.7842217635 
0.7785212022 
0.7715859638 
0.7636172723 
0.7548609376 
0.7455944801 
0.7361044025 
0.7266454526 
0.7173876498 
0.7084005897 
0.6996558728 
0.6910218858 
0.6822399961 
0.6728851778 
0.6623287104 
0.6497226265 
0.6336359397 
0.6107318816 
0.5699655268 
0.4521764979 
0.7812905374 
0.7771459227 
0.7715859638 
0.7648065567 
0.7569937546 
0.748365626 
0.7391932689 
0.7298060697 
0.7205427418 
0.7116220318 
0.7031377609 
0.6950772362 
0.6873103778 
0.6795389492 
0.671216944 
0.6614927598 
0.64944207 
0.6336577585 
0.6108667323 
0.5700885172 
0.4521883595 
0.7729466505 
0.7689982907 
0.7636172723 
0.7569937546 
0.7492850425 
0.7406679691 
0.7313989828 
0.7218938761 
0.7127082925 
0.7041008416 
0.6961665574 
0.6889147673 
0.6822500241 
0.6758655664 
0.6690550773 
0.6604596203 
0.6490764617 
0.6335903462 
0.6108530383 
0.5699717784 
0.4517503982 
0.7638177376 
0.7600610457 
0.7548609376 
0.748365626 
0.7406679691 
0.7318428493 
0.7220358174 
0.7117581739 
0.7023608063 
0.6939370484 
0.6864830078 
0.6800386722 
0.6746366971 
0.6701084305 
0.6656587692 
0.6587056179 
0.6482032021 
0.6330701163 
0.6103788804 
0.5693371214 
0.4505046638 
0.7542123868 
0.7506270862 
0.7455944801 
0.7391932689 
0.7313989828 
0.7220358174 
0.7106545975 
0.6967316178 
0.6865985831 
0.6780664526 
0.670774001 
0.6647902953 
0.6604626488 
0.6582894236 
0.6581482523 
0.6545245315 
0.6457958821 
0.6314564547 
0.6090384875 
0.5679101369 
0.4481528641 
0.7443919228 
0.7409659392 
0.7361044025 
0.7298060697 
0.7218938761 
0.7117581739 
0.6967316178 
0.2196458801 
0.2133922652 
0.2150775274 
0.2163072999 
0.2177122453 
0.2201952033 
0.2262000865 
0.6526025974 
0.6497616771 
0.6419216292 
0.6284785894 
0.6066263733 
0.5655944459 
0.444622179 
0.7345504349 
0.7312927806 
0.7266454526 
0.7205427418 
0.7127082925 
0.7023608063 
0.6865985831 
0.2133922652 
0.2000070354 
0.2000050808 
0.2000064429 
0.2000080641 
0.200010909 
0.2000173942 
0.6465568577 
0.6445300958 
0.6372999536 
0.6246352395 
0.6034382855 
0.5626374922 
0.440202182 
0.7248008491 
0.7217424354 
0.7173876498 
0.7116220318 
0.7041008416 
0.6939370484 
0.6780664526 
0.2150775274 
0.2000050808 
0.2 
0.2 
0.2 
0.2 
0.2 
0.6401535109 
0.6389198494 
0.6322638813 
0.6203520516 
0.5998844492 
0.5594662683 
0.4354581696 
0.7151717672 
0.7123607788 
0.7084005897 
0.7031377609 
0.6961665574 
0.6864830078 
0.670774001 
0.2163072999 
0.2000064429 
0.2 
0.2 
0.2 
0.2 
0.2 
0.6334489198 
0.6329554944 
0.6269825547 
0.6159297315 
0.5963506064 
0.556565314 
0.4311434945 
0.7056115552 
0.7031070665 
0.6996558728 
0.6950772362 
0.6889147673 
0.6800386722 
0.6647902953 
0.2177122453 
0.2000080641 
0.2 
0.2 
0.2 
0.2 
0.2 
0.6263508995 
0.6265548831 
0.621515003 
0.6115699051 
0.5931671025 
0.5544188852 
0.4281667375 
0.6959909806 
0.6938537228 
0.6910218858 
0.6873103778 
0.6822500241 
0.6746366971 
0.6604626488 
0.2201952033 
0.200010909 
0.2 
0.2 
0.2 
0.2 
0.2 
0.6185323239 
0.6194546212 
0.6157709211 
0.6073513906 
0.5905732368 
0.5534615735 
0.427564142 
0.6860964419 
0.6843743528 
0.6822399961 
0.6795389492 
0.6758655664 
0.6701084305 
0.6582894236 
0.2262000865 
0.2000173942 
0.2 
0.2 
0.2 
0.2 
0.2 
0.6090113644 
0.6109186667 
0.6092926603 
0.6030789667 
0.5886066182 
0.5539890381 
0.430390375 
0.6756070547 
0.6743164062 
0.6728851778 
0.671216944 
0.6690550773 
0.6656587692 
0.6581482523 
0.6526025974 
0.6465568577 
0.6401535109 
0.6334489198 
0.6263508995 
0.6185323239 
0.6090113644 
0.6021320272 
0.6017318008 
0.6016752196 
0.5981984498 
0.5869234352 
0.5560054929 
0.4374804574 
0.6640436723 
0.663155412 
0.6623287104 
0.6614927598 
0.6604596203 
0.6587056179 
0.6545245315 
0.6497616771 
0.6445300958 
0.6389198494 
0.6329554944 
0.6265548831 
0.6194546212 
0.6109186667 
0.6017318008 
0.5966996036 
0.5950109385 
0.5929195413 
0.5850466741 
0.5591391433 
0.4492044034 
0.6506465337 
0.650098319 
0.6497226265 
0.64944207 
0.6490764617 
0.6482032021 
0.6457958821 
0.6419216292 
0.6372999536 
0.6322638813 
0.6269825547 
0.621515003 
0.6157709211 
0.6092926603 
0.6016752196 
0.5950109385 
0.5909730738 
0.5884295213 
0.5829927886 
0.5628351697 
0.4654274904 
0.6340030518 
0.6337181431 
0.6336359397 
0.6336577585 
0.6335903462 
0.6330701163 
0.6314564547 
0.6284785894 
0.6246352395 
0.6203520516 
0.6159297315 
0.6115699051 
0.6073513906 
0.6030789667 
0.5981984498 
0.5929195413 
0.5884295213 
0.5852334262 
0.5811380989 
0.5666003369 
0.4855952108 
0.6107520196 
0.6106529856 
0.6107318816 
0.6108667323 
0.6108530383 
0.6103788804 
0.6090384875 
0.6066263733 
0.6034382855 
0.5998844492 
0.5963506064 
0.5931671025 
0.5905732368 
0.5886066182 
0.5869234352 
0.5850466741 
0.5829927886 
0.5811380989 
0.5787747542 
0.5696564799 
0.5084862569 
0.5698074593 
0.5698220535 
0.5699655268 
0.5700885172 
0.5699717784 
0.5693371214 
0.5679101369 
0.5655944459 
0.5626374922 
0.5594662683 
0.556565314 
0.5544188852 
0.5534615735 
0.5539890381 
0.5560054929 
0.5591391433 
0.5628351697 
0.5666003369 
0.5696564799 
0.5681343361 
0.5303323273 
0.4520061051 
0.4520348233 
0.4521764979 
0.4521883595 
0.4517503982 
0.4505046638 
0.4481528641 
0.444622179 
0.440202182 
0.4354581696 
0.4311434945 
0.4281667375 
0.427564142 
0.430390375 
0.4374804574 
0.4492044034 
0.4654274904 
0.4855952108 
0.5084862569 
0.5303323273 
0.5296570674 
SCALARS permeabilityx double 1
LOOKUP_TABLE default
1 
1 
1 
1 
1 
1 
1 
1 
1 
1 
1 
1 
1 
1 
1 
1 
1 
1 
1 
1 
1 
1 
1 
1 
1 
1 
1 
1 
1 
1 
1 
1 
1 
1 
1 
1 
1 
1 
1 
1 
1 
1 
1 
1 
1 
1 
1 
1 
1 
1 
1 
1 
1 
1 
1 
1 
1 
1 
1 
1 
1 
1 
1 
1 
1 
1 
1 
1 
1 
1 
1 
1 
1 
1 
1 
1 
1 
1 
1 
1 
1 
1 
1 
1 
1 
1 
1 
1 
1 
1 
1 
1 
1 
1 
1 
1 
1 
1 
1 
1 
1 
1 
1 
1 
1 
1 
1 
1 
1 
1 
1 
1 
1 
1 
1 
1 
1 
1 
1 
1 
1 
1 
1 
1 
1 
1 
1 
1 
1 
1 
1 
1 
1 
1 
1 
1 
1 
1 
1 
1 
1 
1 
1 
1 
1 
1 
1 
1 
1 
1 
1 
1 
1 
1 
0.001 
0.001 
0.001 
0.001 
0.001 
0.001 
0.001 
1 
1 
1 
1 
1 
1 
1 
1 
1 
1 
1 
1 
1 
1 
0.001 
0.001 
0.001 
0.001 
0.001 
0.001 
0.001 
1 
1 
1 
1 
1 
1 
1 
1 
1 
1 
1 
1 
1 
1 
0.001 
0.001 
0.001 
0.001 
0.001 
0.001 
0.001 
1 
1 
1 
1 
1 
1 
1 
1 
1 
1 
1 
1 
1 
1 
0.001 
0.001 
0.001 
0.001 
0.001 
0.001 
0.001 
1 
1 
1 
1 
1 
1 
1 
1 
1 
1 
1 
1 
1 
1 
0.001 
0.001 
0.001 
0.001 
0.001 
0.001 
0.001 
1 
1 
1 
1 
1 
1 
1 
1 
1 
1 
1 
1 
1 
1 
0.001 
0.001 
0.001 
0.001 
0.001 
0.001 
0.001 
1 
1 
1 
1 
1 
1 
1 
1 
1 
1 
1 
1 
1 
1 
0.001 
0.001 
0.001 
0.001 
0.001 
0.001 
0.001 
1 
1 
1 
1 
1 
1 
1 
1 
1 
1 
1 
1 
1 
1 
1 
1 
1 
1 
1 
1 
1 
1 
1 
1 
1 
1 
1 
1 
1 
1 
1 
1 
1 
1 
1 
1 
1 
1 
1 
1 
1 
1 
1 
1 
1 
1 
1 
1 
1 
1 
1 
1 
1 
1 
1 
1 
1 
1 
1 
1 
1 
1 
1 
1 
1 
1 
1 
1 
1 
1 
1 
1 
1 
1 
1 
1 
1 
1 
1 
1 
1 
1 
1 
1 
1 
1 
1 
1 
1 
1 
1 
1 
1 
1 
1 
1 
1 
1 
1 
1 
1 
1 
1 
1 
1 
1 
1 
1 
1 
1 
1 
1 
1 
1 
1 
1 
1 
1 
1 
1 
1 
1 
1 
1 
1 
1 
1 
1 
1 
1 
1 
1 
1 
1 
1 
1 
1 
1 
1 
1 
1 
1 
1 
1 
1 
1 
1 
1 
1 
1 
1 
1 
1 
1 
