# vtk DataFile Version 3.0
MOAB 5.4.1
ASCII
DATASET UNSTRUCTURED_GRID
POINTS 968 double
0 0 0
1 0 0
2 0 0
3 0 0
4 0 0
5 0 0
6 0 0
7 0 0
8 0 0
9 0 0
10 0 0
11 0 0
12 0 0
13 0 0
14 0 0
15 0 0
16 0 0
17 0 0
18 0 0
19 0 0
20 0 0
21 0 0
0 1 0
1 1 0
2 1 0
3 1 0
4 1 0
5 1 0
6 1 0
7 1 0
8 1 0
9 1 0
10 1 0
11 1 0
12 1 0
13 1 0
14 1 0
15 1 0
16 1 0
17 1 0
18 1 0
19 1 0
20 1 0
21 1 0
0 2 0
1 2 0
2 2 0
3 2 0
4 2 0
5 2 0
6 2 0
7 2 0
8 2 0
9 2 0
10 2 0
11 2 0
12 2 0
13 2 0
14 2 0
15 2 0
16 2 0
17 2 0
18 2 0
19 2 0
20 2 0
21 2 0
0 3 0
1 3 0
2 3 0
3 3 0
4 3 0
5 3 0
6 3 0
7 3 0
8 3 0
9 3 0
10 3 0
11 3 0
12 3 0
13 3 0
14 3 0
15 3 0
16 3 0
17 3 0
18 3 0
19 3 0
20 3 0
21 3 0
0 4 0
1 4 0
2 4 0
3 4 0
4 4 0
5 4 0
6 4 0
7 4 0
8 4 0
9 4 0
10 4 0
11 4 0
12 4 0
13 4 0
14 4 0
15 4 0
16 4 0
17 4 0
18 4 0
19 4 0
20 4 0
21 4 0
0 5 0
1 5 0
2 5 0
3 5 0
4 5 0
5 5 0
6 5 0
7 5 0
8 5 0
9 5 0
10 5 0
11 5 0
12 5 0
13 5 0
14 5 0
15 5 0
16 5 0
17 5 0
18 5 0
19 5 0
20 5 0
21 5 0
0 6 0
1 6 0
2 6 0
3 6 0
4 6 0
5 6 0
6 6 0
7 6 0
8 6 0
9 6 0
10 6 0
11 6 0
12 6 0
13 6 0
14 6 0
15 6 0
16 6 0
17 6 0
18 6 0
19 6 0
20 6 0
21 6 0
0 7 0
1 7 0
2 7 0
3 7 0
4 7 0
5 7 0
6 7 0
7 7 0
8 7 0
9 7 0
10 7 0
11 7 0
12 7 0
13 7 0
14 7 0
15 7 0
16 7 0
17 7 0
18 7 0
19 7 0
20 7 0
21 7 0
0 8 0
1 8 0
2 8 0
3 8 0
4 8 0
5 8 0
6 8 0
7 8 0
8 8 0
9 8 0
10 8 0
11 8 0
12 8 0
13 8 0
14 8 0
15 8 0
16 8 0
17 8 0
18 8 0
19 8 0
20 8 0
21 8 0
0 9 0
1 9 0
2 9 0
3 9 0
4 9 0
5 9 0
6 9 0
7 9 0
8 9 0
9 9 0
10 9 0
11 9 0
12 9 0
13 9 0
14 9 0
15 9 0
16 9 0
17 9 0
18 9 0
19 9 0
20 9 0
21 9 0
0 10 0
1 10 0
2 10 0
3 10 0
4 10 0
5 10 0
6 10 0
7 10 0
8 10 0
9 10 0
10 10 0
11 10 0
12 10 0
13 10 0
14 10 0
15 10 0
16 10 0
17 10 0
18 10 0
19 10 0
20 10 0
21 10 0
0 11 0
1 11 0
2 11 0
3 11 0
4 11 0
5 11 0
6 11 0
7 11 0
8 11 0
9 11 0
10 11 0
11 11 0
12 11 0
13 11 0
14 11 0
15 11 0
16 11 0
17 11 0
18 11 0
19 11 0
20 11 0
21 11 0
0 12 0
1 12 0
2 12 0
3 12 0
4 12 0
5 12 0
6 12 0
7 12 0
8 12 0
9 12 0
10 12 0
11 12 0
12 12 0
13 12 0
14 12 0
15 12 0
16 12 0
17 12 0
18 12 0
19 12 0
20 12 0
21 12 0
0 13 0
1 13 0
2 13 0
3 13 0
4 13 0
5 13 0
6 13 0
7 13 0
8 13 0
9 13 0
10 13 0
11 13 0
12 13 0
13 13 0
14 13 0
15 13 0
16 13 0
17 13 0
18 13 0
19 13 0
20 13 0
21 13 0
0 14 0
1 14 0
2 14 0
3 14 0
4 14 0
5 14 0
6 14 0
7 14 0
8 14 0
9 14 0
10 14 0
11 14 0
12 14 0
13 14 0
14 14 0
15 14 0
16 14 0
17 14 0
18 14 0
19 14 0
20 14 0
21 14 0
0 15 0
1 15 0
2 15 0
3 15 0
4 15 0
5 15 0
6 15 0
7 15 0
8 15 0
9 15 0
10 15 0
11 15 0
12 15 0
13 15 0
14 15 0
15 15 0
16 15 0
17 15 0
18 15 0
19 15 0
20 15 0
21 15 0
0 16 0
1 16 0
2 16 0
3 16 0
4 16 0
5 16 0
6 16 0
7 16 0
8 16 0
9 16 0
10 16 0
11 16 0
12 16 0
13 16 0
14 16 0
15 16 0
16 16 0
17 16 0
18 16 0
19 16 0
20 16 0
21 16 0
0 17 0
1 17 0
2 17 0
3 17 0
4 17 0
5 17 0
6 17 0
7 17 0
8 17 0
9 17 0
10 17 0
11 17 0
12 17 0
13 17 0
14 17 0
15 17 0
16 17 0
17 17 0
18 17 0
19 17 0
20 17 0
21 17 0
0 18 0
1 18 0
2 18 0
3 18 0
4 18 0
5 18 0
6 18 0
7 18 0
8 18 0
9 18 0
10 18 0
11 18 0
12 18 0
13 18 0
14 18 0
15 18 0
16 18 0
17 18 0
18 18 0
19 18 0
20 18 0
21 18 0
0 19 0
1 19 0
2 19 0
3 19 0
4 19 0
5 19 0
6 19 0
7 19 0
8 19 0
9 19 0
10 19 0
11 19 0
12 19 0
13 19 0
14 19 0
15 19 0
16 19 0
17 19 0
18 19 0
19 19 0
20 19 0
21 19 0
0 20 0
1 20 0
2 20 0
3 20 0
4 20 0
5 20 0
6 20 0
7 20 0
8 20 0
9 20 0
10 20 0
11 20 0
12 20 0
13 20 0
14 20 0
15 20 0
16 20 0
17 20 0
18 20 0
19 20 0
20 20 0
21 20 0
0 21 0
1 21 0
2 21 0
3 21 0
4 21 0
5 21 0
6 21 0
7 21 0
8 21 0
9 21 0
10 21 0
11 21 0
12 21 0
13 21 0
14 21 0
15 21 0
16 21 0
17 21 0
18 21 0
19 21 0
20 21 0
21 21 0
0 0 1
1 0 1
2 0 1
3 0 1
4 0 1
5 0 1
6 0 1
7 0 1
8 0 1
9 0 1
10 0 1
11 0 1
12 0 1
13 0 1
14 0 1
15 0 1
16 0 1
17 0 1
18 0 1
19 0 1
20 0 1
21 0 1
0 1 1
1 1 1
2 1 1
3 1 1
4 1 1
5 1 1
6 1 1
7 1 1
8 1 1
9 1 1
10 1 1
11 1 1
12 1 1
13 1 1
14 1 1
15 1 1
16 1 1
17 1 1
18 1 1
19 1 1
20 1 1
21 1 1
0 2 1
1 2 1
2 2 1
3 2 1
4 2 1
5 2 1
6 2 1
7 2 1
8 2 1
9 2 1
10 2 1
11 2 1
12 2 1
13 2 1
14 2 1
15 2 1
16 2 1
17 2 1
18 2 1
19 2 1
20 2 1
21 2 1
0 3 1
1 3 1
2 3 1
3 3 1
4 3 1
5 3 1
6 3 1
7 3 1
8 3 1
9 3 1
10 3 1
11 3 1
12 3 1
13 3 1
14 3 1
15 3 1
16 3 1
17 3 1
18 3 1
19 3 1
20 3 1
21 3 1
0 4 1
1 4 1
2 4 1
3 4 1
4 4 1
5 4 1
6 4 1
7 4 1
8 4 1
9 4 1
10 4 1
11 4 1
12 4 1
13 4 1
14 4 1
15 4 1
16 4 1
17 4 1
18 4 1
19 4 1
20 4 1
21 4 1
0 5 1
1 5 1
2 5 1
3 5 1
4 5 1
5 5 1
6 5 1
7 5 1
8 5 1
9 5 1
10 5 1
11 5 1
12 5 1
13 5 1
14 5 1
15 5 1
16 5 1
17 5 1
18 5 1
19 5 1
20 5 1
21 5 1
0 6 1
1 6 1
2 6 1
3 6 1
4 6 1
5 6 1
6 6 1
7 6 1
8 6 1
9 6 1
10 6 1
11 6 1
12 6 1
13 6 1
14 6 1
15 6 1
16 6 1
17 6 1
18 6 1
19 6 1
20 6 1
21 6 1
0 7 1
1 7 1
2 7 1
3 7 1
4 7 1
5 7 1
6 7 1
7 7 1
8 7 1
9 7 1
10 7 1
11 7 1
12 7 1
13 7 1
14 7 1
15 7 1
16 7 1
17 7 1
18 7 1
19 7 1
20 7 1
21 7 1
0 8 1
1 8 1
2 8 1
3 8 1
4 8 1
5 8 1
6 8 1
7 8 1
8 8 1
9 8 1
10 8 1
11 8 1
12 8 1
13 8 1
14 8 1
15 8 1
16 8 1
17 8 1
18 8 1
19 8 1
20 8 1
21 8 1
0 9 1
1 9 1
2 9 1
3 9 1
4 9 1
5 9 1
6 9 1
7 9 1
8 9 1
9 9 1
10 9 1
11 9 1
12 9 1
13 9 1
14 9 1
15 9 1
16 9 1
17 9 1
18 9 1
19 9 1
20 9 1
21 9 1
0 10 1
1 10 1
2 10 1
3 10 1
4 10 1
5 10 1
6 10 1
7 10 1
8 10 1
9 10 1
10 10 1
11 10 1
12 10 1
13 10 1
14 10 1
15 10 1
16 10 1
17 10 1
18 10 1
19 10 1
20 10 1
21 10 1
0 11 1
1 11 1
2 11 1
3 11 1
4 11 1
5 11 1
6 11 1
7 11 1
8 11 1
9 11 1
10 11 1
11 11 1
12 11 1
13 11 1
14 11 1
15 11 1
16 11 1
17 11 1
18 11 1
19 11 1
20 11 1
21 11 1
0 12 1
1 12 1
2 12 1
3 12 1
4 12 1
5 12 1
6 12 1
7 12 1
8 12 1
9 12 1
10 12 1
11 12 1
12 12 1
13 12 1
14 12 1
15 12 1
16 12 1
17 12 1
18 12 1
19 12 1
20 12 1
21 12 1
0 13 1
1 13 1
2 13 1
3 13 1
4 13 1
5 13 1
6 13 1
7 13 1
8 13 1
9 13 1
10 13 1
11 13 1
12 13 1
13 13 1
14 13 1
15 13 1
16 13 1
17 13 1
18 13 1
19 13 1
20 13 1
21 13 1
0 14 1
1 14 1
2 14 1
3 14 1
4 14 1
5 14 1
6 14 1
7 14 1
8 14 1
9 14 1
10 14 1
11 14 1
12 14 1
13 14 1
14 14 1
15 14 1
16 14 1
17 14 1
18 14 1
19 14 1
20 14 1
21 14 1
0 15 1
1 15 1
2 15 1
3 15 1
4 15 1
5 15 1
6 15 1
7 15 1
8 15 1
9 15 1
10 15 1
11 15 1
12 15 1
13 15 1
14 15 1
15 15 1
16 15 1
17 15 1
18 15 1
19 15 1
20 15 1
21 15 1
0 16 1
1 16 1
2 16 1
3 16 1
4 16 1
5 16 1
6 16 1
7 16 1
8 16 1
9 16 1
10 16 1
11 16 1
12 16 1
13 16 1
14 16 1
15 16 1
16 16 1
17 16 1
18 16 1
19 16 1
20 16 1
21 16 1
0 17 1
1 17 1
2 17 1
3 17 1
4 17 1
5 17 1
6 17 1
7 17 1
8 17 1
9 17 1
10 17 1
11 17 1
12 17 1
13 17 1
14 17 1
15 17 1
16 17 1
17 17 1
18 17 1
19 17 1
20 17 1
21 17 1
0 18 1
1 18 1
2 18 1
3 18 1
4 18 1
5 18 1
6 18 1
7 18 1
8 18 1
9 18 1
10 18 1
11 18 1
12 18 1
13 18 1
14 18 1
15 18 1
16 18 1
17 18 1
18 18 1
19 18 1
20 18 1
21 18 1
0 19 1
1 19 1
2 19 1
3 19 1
4 19 1
5 19 1
6 19 1
7 19 1
8 19 1
9 19 1
10 19 1
11 19 1
12 19 1
13 19 1
14 19 1
15 19 1
16 19 1
17 19 1
18 19 1
19 19 1
20 19 1
21 19 1
0 20 1
1 20 1
2 20 1
3 20 1
4 20 1
5 20 1
6 20 1
7 20 1
8 20 1
9 20 1
10 20 1
11 20 1
12 20 1
13 20 1
14 20 1
15 20 1
16 20 1
17 20 1
18 20 1
19 20 1
20 20 1
21 20 1
0 21 1
1 21 1
2 21 1
3 21 1
4 21 1
5 21 1
6 21 1
7 21 1
8 21 1
9 21 1
10 21 1
11 21 1
12 21 1
13 21 1
14 21 1
15 21 1
16 21 1
17 21 1
18 21 1
19 21 1
20 21 1
21 21 1
CELLS 441 3969
8 0 1 23 22 484 485 507 506
8 22 23 45 44 506 507 529 528
8 44 45 67 66 528 529 551 550
8 66 67 89 88 550 551 573 572
8 88 89 111 110 572 573 595 594
8 110 111 133 132 594 595 617 616
8 132 133 155 154 616 617 639 638
8 154 155 177 176 638 639 661 660
8 176 177 199 198 660 661 683 682
8 198 199 221 220 682 683 705 704
8 220 221 243 242 704 705 727 726
8 242 243 265 264 726 727 749 748
8 264 265 287 286 748 749 771 770
8 286 287 309 308 770 771 793 792
8 308 309 331 330 792 793 815 814
8 330 331 353 352 814 815 837 836
8 352 353 375 374 836 837 859 858
8 374 375 397 396 858 859 881 880
8 396 397 419 418 880 881 903 902
8 418 419 441 440 902 903 925 924
8 440 441 463 462 924 925 947 946
8 1 2 24 23 485 486 508 507
8 23 24 46 45 507 508 530 529
8 45 46 68 67 529 530 552 551
8 67 68 90 89 551 552 574 573
8 89 90 112 111 573 574 596 595
8 111 112 134 133 595 596 618 617
8 133 134 156 155 617 618 640 639
8 155 156 178 177 639 640 662 661
8 177 178 200 199 661 662 684 683
8 199 200 222 221 683 684 706 705
8 221 222 244 243 705 706 728 727
8 243 244 266 265 727 728 750 749
8 265 266 288 287 749 750 772 771
8 287 288 310 309 771 772 794 793
8 309 310 332 331 793 794 816 815
8 331 332 354 353 815 816 838 837
8 353 354 376 375 837 838 860 859
8 375 376 398 397 859 860 882 881
8 397 398 420 419 881 882 904 903
8 419 420 442 441 903 904 926 925
8 441 442 464 463 925 926 948 947
8 2 3 25 24 486 487 509 508
8 24 25 47 46 508 509 531 530
8 46 47 69 68 530 531 553 552
8 68 69 91 90 552 553 575 574
8 90 91 113 112 574 575 597 596
8 112 113 135 134 596 597 619 618
8 134 135 157 156 618 619 641 640
8 156 157 179 178 640 641 663 662
8 178 179 201 200 662 663 685 684
8 200 201 223 222 684 685 707 706
8 222 223 245 244 706 707 729 728
8 244 245 267 266 728 729 751 750
8 266 267 289 288 750 751 773 772
8 288 289 311 310 772 773 795 794
8 310 311 333 332 794 795 817 816
8 332 333 355 354 816 817 839 838
8 354 355 377 376 838 839 861 860
8 376 377 399 398 860 861 883 882
8 398 399 421 420 882 883 905 904
8 420 421 443 442 904 905 927 926
8 442 443 465 464 926 927 949 948
8 3 4 26 25 487 488 510 509
8 25 26 48 47 509 510 532 531
8 47 48 70 69 531 532 554 553
8 69 70 92 91 553 554 576 575
8 91 92 114 113 575 576 598 597
8 113 114 136 135 597 598 620 619
8 135 136 158 157 619 620 642 641
8 157 158 180 179 641 642 664 663
8 179 180 202 201 663 664 686 685
8 201 202 224 223 685 686 708 707
8 223 224 246 245 707 708 730 729
8 245 246 268 267 729 730 752 751
8 267 268 290 289 751 752 774 773
8 289 290 312 311 773 774 796 795
8 311 312 334 333 795 796 818 817
8 333 334 356 355 817 818 840 839
8 355 356 378 377 839 840 862 861
8 377 378 400 399 861 862 884 883
8 399 400 422 421 883 884 906 905
8 421 422 444 443 905 906 928 927
8 443 444 466 465 927 928 950 949
8 4 5 27 26 488 489 511 510
8 26 27 49 48 510 511 533 532
8 48 49 71 70 532 533 555 554
8 70 71 93 92 554 555 577 576
8 92 93 115 114 576 577 599 598
8 114 115 137 136 598 599 621 620
8 136 137 159 158 620 621 643 642
8 158 159 181 180 642 643 665 664
[...]
POINT_DATA 968
SCALARS GLOBAL_ID int 1
LOOKUP_TABLE default
-1 
-1 
-1 
-1 
-1 
-1 
-1 
-1 
-1 
-1 
-1 
-1 
-1 
-1 
-1 
-1 
-1 
-1 
-1 
-1 
-1 
-1 
-1 
-1 
-1 
-1 
-1 
-1 
-1 
-1 
-1 
-1 
-1 
-1 
-1 
-1 
-1 
-1 
-1 
-1 
-1 
-1 
-1 
-1 
-1 
-1 
-1 
-1 
-1 
-1 
-1 
-1 
-1 
-1 
-1 
-1 
-1 
-1 
-1 
-1 
-1 
-1 
-1 
-1 
-1 
-1 
-1 
-1 
-1 
-1 
-1 
-1 
-1 
-1 
-1 
-1 
-1 
-1 
-1 
-1 
-1 
-1 
-1 
-1 
-1 
-1 
-1 
-1 
-1 
-1 
-1 
-1 
-1 
-1 
-1 
-1 
-1 
-1 
-1 
-1 
-1 
-1 
-1 
-1 
-1 
-1 
-1 
-1 
-1 
-1 
-1 
-1 
-1 
-1 
-1 
-1 
-1 
-1 
-1 
-1 
-1 
-1 
-1 
-1 
-1 
-1 
-1 
-1 
-1 
-1 
-1 
-1 
-1 
-1 
-1 
-1 
-1 
-1 
-1 
-1 
-1 
-1 
-1 
-1 
-1 
-1 
-1 
-1 
-1 
-1 
-1 
-1 
-1 
-1 
-1 
-1 
-1 
-1 
-1 
-1 
-1 
-1 
-1 
-1 
-1 
-1 
-1 
-1 
-1 
-1 
-1 
-1 
-1 
-1 
-1 
-1 
-1 
-1 
-1 
-1 
-1 
-1 
-1 
-1 
-1 
-1 
-1 
-1 
-1 
-1 
-1 
-1 
-1 
-1 
-1 
-1 
-1 
-1 
-1 
-1 
-1 
-1 
-1 
-1 
-1 
-1 
-1 
-1 
-1 
-1 
-1 
-1 
-1 
-1 
-1 
-1 
-1 
-1 
-1 
-1 
-1 
-1 
-1 
-1 
-1 
-1 
-1 
-1 
-1 
-1 
-1 
-1 
-1 
-1 
-1 
-1 
-1 
-1 
-1 
-1 
-1 
-1 
-1 
-1 
-1 
-1 
-1 
-1 
-1 
-1 
-1 
-1 
-1 
-1 
-1 
-1 
-1 
-1 
-1 
-1 
-1 
-1 
-1 
-1 
-1 
-1 
-1 
-1 
-1 
-1 
-1 
-1 
-1 
-1 
-1 
-1 
-1 
-1 
-1 
-1 
-1 
-1 
-1 
-1 
-1 
-1 
-1 
-1 
-1 
-1 
-1 
-1 
-1 
-1 
-1 
-1 
-1 
-1 
-1 
-1 
-1 
-1 
-1 
-1 
-1 
-1 
-1 
-1 
-1 
-1 
-1 
-1 
-1 
-1 
-1 
-1 
-1 
-1 
-1 
-1 
-1 
-1 
-1 
-1 
-1 
-1 
-1 
-1 
-1 
-1 
-1 
-1 
-1 
-1 
-1 
-1 
-1 
-1 
-1 
-1 
-1 
-1 
-1 
-1 
-1 
-1 
-1 
-1 
-1 
-1 
-1 
-1 
-1 
-1 
-1 
-1 
-1 
-1 
-1 
-1 
-1 
-1 
-1 
-1 
-1 
-1 
-1 
-1 
-1 
-1 
-1 
-1 
-1 
-1 
-1 
-1 
-1 
-1 
-1 
-1 
-1 
-1 
-1 
-1 
-1 
-1 
-1 
-1 
-1 
-1 
-1 
-1 
-1 
-1 
-1 
-1 
-1 
-1 
-1 
-1 
-1 
-1 
-1 
-1 
-1 
-1 
-1 
-1 
-1 
-1 
-1 
-1 
-1 
-1 
-1 
-1 
-1 
-1 
-1 
-1 
-1 
-1 
-1 
-1 
-1 
-1 
-1 
-1 
-1 
-1 
-1 
-1 
-1 
-1 
-1 
-1 
-1 
-1 
-1 
-1 
-1 
-1 
-1 
-1 
-1 
-1 
-1 
-1 
-1 
-1 
-1 
-1 
-1 
-1 
-1 
-1 
-1 
-1 
-1 
-1 
-1 
-1 
-1 
-1 
-1 
-1 
-1 
-1 
-1 
-1 
-1 
-1 
-1 
-1 
-1 
-1 
-1 
-1 
-1 
-1 
-1 
-1 
-1 
-1 
-1 
-1 
-1 
-1 
-1 
-1 
-1 
-1 
-1 
-1 
-1 
-1 
-1 
-1 
-1 
-1 
-1 
-1 
-1 
-1 
-1 
-1 
-1 
-1 
-1 
-1 
-1 
-1 
-1 
-1 
-1 
-1 
-1 
-1 
-1 
-1 
-1 
-1 
-1 
-1 
-1 
-1 
-1 
-1 
-1 
-1 
-1 
-1 
-1 
-1 
-1 
-1 
-1 
-1 
-1 
-1 
-1 
-1 
-1 
-1 
-1 
-1 
-1 
-1 
-1 
-1 
-1 
-1 
-1 
-1 
-1 
-1 
-1 
-1 
-1 
-1 
-1 
-1 
-1 
-1 
-1 
-1 
-1 
-1 
-1 
-1 
-1 
-1 
-1 
-1 
-1 
-1 
-1 
-1 
-1 
-1 
-1 
-1 
-1 
-1 
-1 
-1 
-1 
-1 
-1 
-1 
-1 
-1 
-1 
-1 
-1 
-1 
-1 
-1 
-1 
-1 
-1 
-1 
-1 
-1 
-1 
-1 
-1 
-1 
-1 
-1 
-1 
-1 
-1 
-1 
-1 
-1 
-1 
-1 
-1 
-1 
-1 
-1 
-1 
-1 
-1 
-1 
-1 
-1 
-1 
-1 
-1 
-1 
-1 
-1 
-1 
-1 
-1 
-1 
-1 
-1 
-1 
-1 
-1 
-1 
-1 
-1 
-1 
-1 
-1 
-1 
-1 
-1 
-1 
-1 
-1 
-1 
-1 
-1 
-1 
-1 
-1 
-1 
-1 
-1 
-1 
-1 
-1 
-1 
-1 
-1 
-1 
-1 
-1 
-1 
-1 
-1 
-1 
-1 
-1 
-1 
-1 
-1 
-1 
-1 
-1 
-1 
-1 
-1 
-1 
-1 
-1 
-1 
-1 
-1 
-1 
-1 
-1 
-1 
-1 
-1 
-1 
-1 
-1 
-1 
-1 
-1 
-1 
-1 
-1 
-1 
-1 
-1 
-1 
-1 
-1 
-1 
-1 
-1 
-1 
-1 
-1 
-1 
-1 
-1 
-1 
-1 
-1 
-1 
-1 
-1 
-1 
-1 
-1 
-1 
-1 
-1 
-1 
-1 
-1 
-1 
-1 
-1 
-1 
-1 
-1 
-1 
-1 
-1 
-1 
-1 
-1 
-1 
-1 
-1 
-1 
-1 
-1 
-1 
-1 
-1 
-1 
-1 
-1 
-1 
-1 
-1 
-1 
-1 
-1 
-1 
-1 
-1 
-1 
-1 
-1 
-1 
-1 
-1 
-1 
-1 
-1 
-1 
-1 
-1 
-1 
-1 
-1 
-1 
-1 
-1 
-1 
-1 
-1 
-1 
-1 
-1 
-1 
-1 
-1 
-1 
-1 
-1 
-1 
-1 
-1 
-1 
-1 
-1 
-1 
-1 
-1 
-1 
-1 
-1 
-1 
-1 
-1 
-1 
-1 
-1 
-1 
-1 
-1 
-1 
-1 
-1 
-1 
-1 
-1 
-1 
-1 
-1 
-1 
-1 
-1 
-1 
-1 
-1 
-1 
-1 
-1 
-1 
-1 
-1 
-1 
-1 
-1 
-1 
-1 
-1 
-1 
-1 
-1 
-1 
-1 
-1 
-1 
-1 
-1 
-1 
-1 
-1 
-1 
-1 
-1 
-1 
-1 
-1 
-1 
-1 
-1 
-1 
-1 
-1 
-1 
-1 
-1 
-1 
-1 
-1 
-1 
-1 
-1 
-1 
-1 
-1 
-1 
-1 
-1 
-1 
-1 
-1 
-1 
-1 
-1 
-1 
-1 
-1 
-1 
-1 
-1 
-1 
-1 
-1 
-1 
-1 
-1 
-1 
-1 
-1 
-1 
-1 
-1 
-1 
-1 
-1 
-1 
-1 
-1 
-1 
-1 
-1 
-1 
-1 
-1 
-1 
-1 
-1 
-1 
-1 
-1 
-1 
-1 
-1 
-1 
-1 
-1 
-1 
-1 
-1 
-1 
-1 
-1 
-1 
-1 
-1 
-1 
-1 
-1 
-1 
-1 
-1 
-1 
-1 
-1 
-1 
-1 
-1 
-1 
-1 
-1 
-1 
-1 
-1 
-1 
-1 
-1 
-1 
CELL_DATA 441
SCALARS GLOBAL_ID int 1
LOOKUP_TABLE default
-1 
-1 
-1 
-1 
-1 
-1 
-1 
-1 
-1 
-1 
-1 
-1 
-1 
-1 
-1 
-1 
-1 
-1 
-1 
-1 
-1 
-1 
-1 
-1 
-1 
-1 
-1 
-1 
-1 
-1 
-1 
-1 
-1 
-1 
-1 
-1 
-1 
-1 
-1 
-1 
-1 
-1 
-1 
-1 
-1 
-1 
-1 
-1 
-1 
-1 
-1 
-1 
-1 
-1 
-1 
-1 
-1 
-1 
-1 
-1 
-1 
-1 
-1 
-1 
-1 
-1 
-1 
-1 
-1 
-1 
-1 
-1 
-1 
-1 
-1 
-1 
-1 
-1 
-1 
-1 
-1 
-1 
-1 
-1 
-1 
-1 
-1 
-1 
-1 
-1 
-1 
-1 
-1 
-1 
-1 
-1 
-1 
-1 
-1 
-1 
-1 
-1 
-1 
-1 
-1 
-1 
-1 
-1 
-1 
-1 
-1 
-1 
-1 
-1 
-1 
-1 
-1 
-1 
-1 
-1 
-1 
-1 
-1 
-1 
-1 
-1 
-1 
-1 
-1 
-1 
-1 
-1 
-1 
-1 
-1 
-1 
-1 
-1 
-1 
-1 
-1 
-1 
-1 
-1 
-1 
-1 
-1 
-1 
-1 
-1 
-1 
-1 
-1 
-1 
-1 
-1 
-1 
-1 
-1 
-1 
-1 
-1 
-1 
-1 
-1 
-1 
-1 
-1 
-1 
-1 
-1 
-1 
-1 
-1 
-1 
-1 
-1 
-1 
-1 
-1 
-1 
-1 
-1 
-1 
-1 
-1 
-1 
-1 
-1 
-1 
-1 
-1 
-1 
-1 
-1 
-1 
-1 
-1 
-1 
-1 
-1 
-1 
-1 
-1 
-1 
-1 
-1 
-1 
-1 
-1 
-1 
-1 
-1 
-1 
-1 
-1 
-1 
-1 
-1 
-1 
-1 
-1 
-1 
-1 
-1 
-1 
-1 
-1 
-1 
-1 
-1 
-1 
-1 
-1 
-1 
-1 
-1 
-1 
-1 
-1 
-1 
-1 
-1 
-1 
-1 
-1 
-1 
-1 
-1 
-1 
-1 
-1 
-1 
-1 
-1 
-1 
-1 
-1 
-1 
-1 
-1 
-1 
-1 
-1 
-1 
-1 
-1 
-1 
-1 
-1 
-1 
-1 
-1 
-1 
-1 
-1 
-1 
-1 
-1 
-1 
-1 
-1 
-1 
-1 
-1 
-1 
-1 
-1 
-1 
-1 
-1 
-1 
-1 
-1 
-1 
-1 
-1 
-1 
-1 
-1 
-1 
-1 
-1 
-1 
-1 
-1 
-1 
-1 
-1 
-1 
-1 
-1 
-1 
-1 
-1 
-1 
-1 
-1 
-1 
-1 
-1 
-1 
-1 
-1 
-1 
-1 
-1 
-1 
-1 
-1 
-1 
-1 
-1 
-1 
-1 
-1 
-1 
-1 
-1 
-1 
-1 
-1 
-1 
-1 
-1 
-1 
-1 
-1 
-1 
-1 
-1 
-1 
-1 
-1 
-1 
-1 
-1 
-1 
-1 
-1 
-1 
-1 
-1 
-1 
-1 
-1 
-1 
-1 
-1 
-1 
-1 
-1 
-1 
-1 
-1 
-1 
-1 
-1 
-1 
-1 
-1 
-1 
-1 
-1 
-1 
-1 
-1 
-1 
-1 
-1 
-1 
-1 
-1 
-1 
-1 
-1 
-1 
-1 
-1 
-1 
-1 
-1 
-1 
-1 
-1 
-1 
-1 
-1 
-1 
-1 
-1 
-1 
-1 
-1 
-1 
-1 
-1 
-1 
-1 
-1 
-1 
-1 
-1 
-1 
-1 
-1 
-1 
-1 
-1 
-1 
-1 
-1 
-1 
-1 
-1 
-1 
-1 
-1 
-1 
-1 
-1 
SCALARS pressure double 1
LOOKUP_TABLE default
100 
92.07224063 
87.13859742 
83.61114856 
80.82872235 
78.48004634 
76.39749725 
74.48112215 
72.66846153 
70.92195105 
69.22308749 
67.5692619 
65.97155813 
64.45231574 
63.04122584 
61.76930359 
60.66224396 
59.73699676 
59.00088962 
58.45191436 
58.10082608 
92.07224063 
88.86817887 
85.59914306 
82.75038586 
80.29128256 
78.11955799 
76.14446019 
74.29665543 
72.52655428 
70.80262068 
69.10966961 
67.44741104 
65.82944637 
64.28204996 
62.84089114 
61.54342202 
60.4181792 
59.48151438 
58.73859809 
58.185137 
57.83079627 
87.13859742 
85.59914306 
83.52286042 
81.39313479 
79.36809946 
77.47151835 
75.67964205 
73.95547798 
72.26406981 
70.58169756 
68.89804189 
67.21621969 
65.55363095 
63.94378515 
62.43588934 
61.08432059 
59.9231308 
58.96555642 
58.21100906 
57.6501617 
57.29038303 
83.61114856 
82.75038586 
81.39313479 
79.83168509 
78.22353877 
76.63188815 
75.06567511 
73.50490683 
71.92002783 
70.29297184 
68.61828737 
66.90170523 
65.16264453 
63.44227704 
61.81381801 
60.37384666 
59.16180985 
58.17926426 
57.41283503 
56.84429286 
56.4775702 
80.82872235 
80.29128256 
79.36809946 
78.22353877 
76.9745801 
75.68399202 
74.36809573 
73.00446731 
71.54783152 
69.98459294 
68.3156032 
66.54673828 
64.69141181 
62.78817687 
60.94286314 
59.37449351 
58.10804903 
57.1087978 
56.33848561 
55.76580607 
55.39124724 
78.48004634 
78.11955799 
77.47151835 
76.63188815 
75.68399202 
74.68247456 
73.64333285 
72.5257791 
71.21421805 
69.71662131 
68.04955716 
66.21657599 
64.20753316 
62.01624529 
59.73513438 
58.01249287 
56.72391604 
55.74046669 
54.98647927 
54.41782021 
54.03529697 
76.39749725 
76.14446019 
75.67964205 
75.06567511 
74.36809573 
73.64333285 
72.92515086 
72.1724101 
71.00088195 
69.55467462 
67.8877276 
66.00202135 
63.84626965 
61.27499483 
57.90992274 
56.15625618 
54.97145761 
54.07284596 
53.3670941 
52.81328122 
52.42435443 
74.48112215 
74.29665543 
73.95547798 
73.50490683 
73.00446731 
72.5257791 
72.1724101 
71.35226358 
69.70195504 
67.92862487 
65.96237946 
63.74180058 
61.09985541 
57.53703657 
54.41313513 
53.67141398 
52.86983169 
52.14159322 
51.51130724 
50.97823563 
50.58964071 
72.66846153 
72.52655428 
72.26406981 
71.92002783 
71.54783152 
71.21421805 
71.00088195 
69.70195504 
67.38174697 
65.12548377 
62.77009421 
60.20705085 
57.27655157 
53.7410919 
51.58018807 
51.18591113 
50.63055154 
50.03924327 
49.46990097 
48.94666563 
48.57711678 
70.92195105 
70.80262068 
70.58169756 
70.29297184 
69.98459294 
69.71662131 
69.55467462 
67.92862487 
65.12548377 
62.50493543 
59.88439745 
57.15438718 
54.19414142 
50.89324348 
49.06887004 
48.79896728 
48.35945568 
47.83625744 
47.2863808 
46.74420923 
46.42877067 
69.22308749 
69.10966961 
68.89804189 
68.61828737 
68.3156032 
68.04955716 
67.8877276 
65.96237946 
62.77009421 
59.88439745 
57.10818604 
54.33197463 
51.45240274 
48.38962442 
46.75510081 
46.5148406 
46.09755782 
45.57100409 
44.98701043 
44.38648834 
44.16415587 
67.5692619 
67.44741104 
67.21621969 
66.90170523 
66.54673828 
66.21657599 
66.00202135 
63.74180058 
60.20705085 
57.15438718 
54.33197463 
51.61292256 
48.8938705 
46.08900848 
44.60507834 
44.3325606 
43.8586461 
43.25761624 
42.58455259 
41.91551387 
41.79055249 
65.97155813 
65.82944637 
65.55363095 
65.16264453 
64.69141181 
64.20753316 
63.84626965 
61.09985541 
57.27655157 
54.19414142 
51.45240274 
48.8938705 
46.4211482 
43.9484259 
42.6404298 
42.26165268 
41.641862 
40.88815186 
40.07591646 
39.41931471 
39.32837583 
64.45231574 
64.28204996 
63.94378515 
63.44227704 
62.78817687 
62.01624529 
61.27499483 
57.53703657 
53.7410919 
50.89324348 
48.38962442 
46.08900848 
43.9484259 
41.94849985 
40.94753687 
40.31855162 
39.42857445 
38.43128639 
37.4432879 
36.91389767 
36.78414327 
63.04122584 
62.84089114 
62.43588934 
61.81381801 
60.94286314 
59.73513438 
57.90992274 
54.41313513 
51.58018807 
49.06887004 
46.75510081 
44.60507834 
42.6404298 
40.94753687 
39.75112106 
38.49826953 
37.1756495 
35.86463089 
34.76358186 
34.32026152 
34.11268719 
61.76930359 
61.54342202 
61.08432059 
60.37384666 
59.37449351 
58.01249287 
56.15625618 
53.67141398 
51.18591113 
48.79896728 
46.5148406 
44.3325606 
42.26165268 
40.31855162 
38.49826953 
36.64954196 
34.85988252 
33.30234797 
32.20956427 
31.59397337 
31.23430428 
60.66224396 
60.4181792 
59.9231308 
59.16180985 
58.10804903 
56.72391604 
54.97145761 
52.86983169 
50.63055154 
48.35945568 
46.09755782 
43.8586461 
41.641862 
39.42857445 
37.1756495 
34.85988252 
32.73608875 
31.03689447 
29.69749779 
28.63719457 
27.99630841 
59.73699676 
59.48151438 
58.96555642 
58.17926426 
57.1087978 
55.74046669 
54.07284596 
52.14159322 
50.03924327 
47.83625744 
45.57100409 
43.25761624 
40.88815186 
38.43128639 
35.86463089 
33.30234797 
31.03689447 
28.99444424 
27.02416863 
25.26251917 
24.11742659 
59.00088962 
58.73859809 
58.21100906 
57.41283503 
56.33848561 
54.98647927 
53.3670941 
51.51130724 
49.46990097 
47.2863808 
44.98701043 
42.58455259 
40.07591646 
37.4432879 
34.76358186 
32.20956427 
29.69749779 
27.02416863 
24.14772732 
21.27129091 
19.09345219 
58.45191436 
58.185137 
57.6501617 
56.84429286 
55.76580607 
54.41782021 
52.81328122 
50.97823563 
48.94666563 
46.74420923 
44.38648834 
41.91551387 
39.41931471 
36.91389767 
34.32026152 
31.59397337 
28.63719457 
25.26251917 
21.27129091 
16.58146499 
11.89163906 
58.10082608 
57.83079627 
57.29038303 
56.4775702 
55.39124724 
54.03529697 
52.42435443 
50.58964071 
48.57711678 
46.42877067 
44.16415587 
41.79055249 
39.32837583 
36.78414327 
34.11268719 
31.23430428 
27.99630841 
24.11742659 
19.09345219 
11.89163906 
0 
SCALARS saturation double 1
LOOKUP_TABLE default
0.8 
0.7921752277 
0.7842283128 
0.7746399641 
0.7638156261 
0.7522008102 
0.7401786689 
0.7280456627 
0.7159995022 
0.7041326833 
0.6924352246 
0.6808010652 
0.6690271118 
0.6567935962 
0.6436103862 
0.6286907112 
0.610613225 
0.5862215784 
0.5467493537 
0.4621696616 
0.2769819609 
0.7921752277 
0.7861863952 
0.7784401286 
0.7691499395 
0.7586620014 
0.7473607681 
0.735610204 
0.7237187624 
0.7119115111 
0.7003084185 
0.6889209392 
0.6776568491 
0.666316353 
0.6545664357 
0.6418813298 
0.6274202481 
0.6097157835 
0.5855700824 
0.5461410507 
0.4611567916 
0.2756980528 
0.7842283128 
0.7784401286 
0.7709068179 
0.7619086453 
0.7517491834 
0.7407605029 
0.7292859924 
0.7176558235 
0.7061442055 
0.6949142484 
0.6840070139 
0.6733473792 
0.6627347811 
0.6518034348 
0.6399465154 
0.6261987785 
0.6090182177 
0.5851726049 
0.5457675348 
0.4603066189 
0.2744134545 
0.7746399641 
0.7691499395 
0.7619086453 
0.7532208669 
0.7433597867 
0.732616441 
0.7213241328 
0.7098654816 
0.6986168989 
0.6878008531 
0.6774901399 
0.6676335574 
0.6580400936 
0.6483063628 
0.6376884778 
0.6249472115 
0.6084314732 
0.5848952723 
0.5454133898 
0.4592034331 
0.2725080047 
0.7638156261 
0.7586620014 
0.7517491834 
0.7433597867 
0.7337205911 
0.7230651772 
0.711705694 
0.7001288996 
0.6889746818 
0.6785154782 
0.6688321544 
0.6599101756 
0.6516135916 
0.6435446927 
0.6347775387 
0.6234300509 
0.6077232348 
0.5844571158 
0.5447006044 
0.4571807941 
0.2689945206 
0.7522008102 
0.7473607681 
0.7407605029 
0.732616441 
0.7230651772 
0.7122066949 
0.7002090967 
0.6876668944 
0.6761933767 
0.6658689799 
0.6566705322 
0.6486403163 
0.6418225731 
0.6360176186 
0.6302148424 
0.620937358 
0.6062992206 
0.5832874422 
0.5429982215 
0.4532059747 
0.2625305854 
0.7401786689 
0.735610204 
0.7292859924 
0.7213241328 
0.711705694 
0.7002090967 
0.6862388102 
0.6690015622 
0.6563492851 
0.6455894839 
0.6362887244 
0.6285624299 
0.6229037402 
0.62003642 
0.6198932339 
0.6149824253 
0.6025775322 
0.5802571029 
0.5393117836 
0.4457048504 
0.2517490273 
0.7280456627 
0.7237187624 
0.7176558235 
0.7098654816 
0.7001288996 
0.6876668944 
0.6690015622 
0.2131492947 
0.2084173924 
0.2091061864 
0.2094864686 
0.2099361444 
0.2109165109 
0.2135079194 
0.6132471362 
0.6083090733 
0.5965200019 
0.574607015 
0.5326204873 
0.4325097237 
0.2366101161 
0.7159995022 
0.7119115111 
0.7061442055 
0.6986168989 
0.6889746818 
0.6761933767 
0.6563492851 
0.2084173924 
0.2000018413 
0.2000011877 
0.2000013567 
0.2000015352 
0.2000018785 
0.2000026881 
0.6052811372 
0.600482501 
0.5887172366 
0.5665140706 
0.5222920577 
0.4109451356 
0.220233948 
0.7041326833 
0.7003084185 
0.6949142484 
0.6878008531 
0.6785154782 
0.6658689799 
0.6455894839 
0.2091061864 
0.2000011877 
0.2 
0.2 
0.2 
0.2 
0.2 
0.5960013512 
0.591207574 
0.5790408429 
0.5557085795 
0.507129479 
0.3773942782 
0.2077023857 
0.6924352246 
0.6889209392 
0.6840070139 
0.6774901399 
0.6688321544 
0.6566705322 
0.6362887244 
0.2094864686 
0.2000013567 
0.2 
0.2 
0.2 
0.2 
0.2 
0.5848739781 
0.579752105 
0.5667412302 
0.5411855215 
0.4847223171 
0.3287521395 
0.2017366688 
0.6808010652 
0.6776568491 
0.6733473792 
0.6676335574 
0.6599101756 
0.6486403163 
0.6285624299 
0.2099361444 
0.2000015352 
0.2 
0.2 
0.2 
0.2 
0.2 
0.570369605 
0.564546716 
0.5502404379 
0.5209171314 
0.4510215917 
0.2702924467 
0.2002797269 
0.6690271118 
0.666316353 
0.6627347811 
0.6580400936 
0.6516135916 
0.6418225731 
0.6229037402 
0.2109165109 
0.2000018785 
0.2 
0.2 
0.2 
0.2 
0.2 
0.548795614 
0.5423087938 
0.5264211063 
0.4910972509 
0.4003954368 
0.2241218866 
0.2000419913 
0.6567935962 
0.6545664357 
0.6518034348 
0.6483063628 
0.6435446927 
0.6360176186 
0.62003642 
0.2135079194 
0.2000026881 
0.2 
0.2 
0.2 
0.2 
0.2 
0.5097362572 
0.5050240367 
0.4883458114 
0.4441911581 
0.3287704924 
0.2051425187 
0.2000028726 
0.6436103862 
0.6418813298 
0.6399465154 
0.6376884778 
0.6347775387 
0.6302148424 
0.6198932339 
0.6132471362 
0.6052811372 
0.5960013512 
0.5848739781 
0.570369605 
0.548795614 
0.5097362572 
0.4674248394 
0.4469455976 
0.4242259622 
0.3681903049 
0.2514857383 
0.2009026205 
0.2000001508 
0.6286907112 
0.6274202481 
0.6261987785 
0.6249472115 
0.6234300509 
0.620937358 
0.6149824253 
0.6083090733 
0.600482501 
0.591207574 
0.579752105 
0.564546716 
0.5423087938 
0.5050240367 
0.4469455976 
0.3861345576 
0.3326661385 
0.270084187 
0.2088111401 
0.2000456306 
0.2000000007 
0.610613225 
0.6097157835 
0.6090182177 
0.6084314732 
0.6077232348 
0.6062992206 
0.6025775322 
0.5965200019 
0.5887172366 
0.5790408429 
0.5667412302 
0.5502404379 
0.5264211063 
0.4883458114 
0.4242259622 
0.3326661385 
0.2502917374 
0.2112803583 
0.200303497 
0.2000000907 
0.2 
0.5862215784 
0.5855700824 
0.5851726049 
0.5848952723 
0.5844571158 
0.5832874422 
0.5802571029 
0.574607015 
0.5665140706 
0.5557085795 
0.5411855215 
0.5209171314 
0.4910972509 
0.4441911581 
0.3681903049 
0.270084187 
0.2112803583 
0.2004296333 
0.2000005124 
0.2 
0.2 
0.5467493537 
0.5461410507 
0.5457675348 
0.5454133898 
0.5447006044 
0.5429982215 
0.5393117836 
0.5326204873 
0.5222920577 
0.507129479 
0.4847223171 
0.4510215917 
0.4003954368 
0.3287704924 
0.2514857383 
0.2088111401 
0.200303497 
0.2000005124 
0.2 
0.2 
0.2 
0.4621696616 
0.4611567916 
0.4603066189 
0.4592034331 
0.4571807941 
0.4532059747 
0.4457048504 
0.4325097237 
0.4109451356 
0.3773942782 
0.3287521395 
0.2702924467 
0.2241218866 
0.2051425187 
0.2009026205 
0.2000456306 
0.2000000907 
0.2 
0.2 
0.2 
0.2 
0.2769819609 
0.2756980528 
0.2744134545 
0.2725080047 
0.2689945206 
0.2625305854 
0.2517490273 
0.2366101161 
0.220233948 
0.2077023857 
0.2017366688 
0.2002797269 
0.2000419913 
0.2000028726 
0.2000001508 
0.2000000007 
0.2 
0.2 
0.2 
0.2 
0.2 
SCALARS permeabilityx double 1
LOOKUP_TABLE default
1 
1 
1 
1 
1 
1 
1 
1 
1 
1 
1 
1 
1 
1 
1 
1 
1 
1 
1 
1 
1 
1 
1 
1 
1 
1 
1 
1 
1 
1 
1 
1 
1 
1 
1 
1 
1 
1 
1 
1 
1 
1 
1 
1 
1 
1 
1 
1 
1 
1 
1 
1 
1 
1 
1 
1 
1 
1 
1 
1 
1 
1 
1 
1 
1 
1 
1 
1 
1 
1 
1 
1 
1 
1 
1 
1 
1 
1 
1 
1 
1 
1 
1 
1 
1 
1 
1 
1 
1 
1 
1 
1 
1 
1 
1 
1 
1 
1 
1 
1 
1 
1 
1 
1 
1 
1 
1 
1 
1 
1 
1 
1 
1 
1 
1 
1 
1 
1 
1 
1 
1 
1 
1 
1 
1 
1 
1 
1 
1 
1 
1 
1 
1 
1 
1 
1 
1 
1 
1 
1 
1 
1 
1 
1 
1 
1 
1 
1 
1 
1 
1 
1 
1 
1 
0.001 
0.001 
0.001 
0.001 
0.001 
0.001 
0.001 
1 
1 
1 
1 
1 
1 
1 
1 
1 
1 
1 
1 
1 
1 
0.001 
0.001 
0.001 
0.001 
0.001 
0.001 
0.001 
1 
1 
1 
1 
1 
1 
1 
1 
1 
1 
1 
1 
1 
1 
0.001 
0.001 
0.001 
0.001 
0.001 
0.001 
0.001 
1 
1 
1 
1 
1 
1 
1 
1 
1 
1 
1 
1 
1 
1 
0.001 
0.001 
0.001 
0.001 
0.001 
0.001 
0.001 
1 
1 
1 
1 
1 
1 
1 
1 
1 
1 
1 
1 
1 
1 
0.001 
0.001 
0.001 
0.001 
0.001 
0.001 
0.001 
1 
1 
1 
1 
1 
1 
1 
1 
1 
1 
1 
1 
1 
1 
0.001 
0.001 
0.001 
0.001 
0.001 
0.001 
0.001 
1 
1 
1 
1 
1 
1 
1 
1 
1 
1 
1 
1 
1 
1 
0.001 
0.001 
0.001 
0.001 
0.001 
0.001 
0.001 
1 
1 
1 
1 
1 
1 
1 
1 
1 
1 
1 
1 
1 
1 
1 
1 
1 
1 
1 
1 
1 
1 
1 
1 
1 
1 
1 
1 
1 
1 
1 
1 
1 
1 
1 
1 
1 
1 
1 
1 
1 
1 
1 
1 
1 
1 
1 
1 
1 
1 
1 
1 
1 
1 
1 
1 
1 
1 
1 
1 
1 
1 
1 
1 
1 
1 
1 
1 
1 
1 
1 
1 
1 
1 
1 
1 
1 
1 
1 
1 
1 
1 
1 
1 
1 
1 
1 
1 
1 
1 
1 
1 
1 
1 
1 
1 
1 
1 
1 
1 
1 
1 
1 
1 
1 
1 
1 
1 
1 
1 
1 
1 
1 
1 
1 
1 
1 
1 
1 
1 
1 
1 
1 
1 
1 
1 
1 
1 
1 
1 
1 
1 
1 
1 
1 
1 
1 
1 
1 
1 
1 
1 
1 
1 
1 
1 
1 
1 
1 
1 
1 
1 
1 
1 
