# vtk DataFile Version 3.0
MOAB 5.4.1
ASCII
DATASET UNSTRUCTURED_GRID
POINTS 968 double
0 0 0
1 0 0
2 0 0
3 0 0
4 0 0
5 0 0
6 0 0
7 0 0
8 0 0
9 0 0
10 0 0
11 0 0
12 0 0
13 0 0
14 0 0
15 0 0
16 0 0
17 0 0
18 0 0
19 0 0
20 0 0
21 0 0
0 1 0
1 1 0
2 1 0
3 1 0
4 1 0
5 1 0
6 1 0
7 1 0
8 1 0
9 1 0
10 1 0
11 1 0
12 1 0
13 1 0
14 1 0
15 1 0
16 1 0
17 1 0
18 1 0
19 1 0
20 1 0
21 1 0
0 2 0
1 2 0
2 2 0
3 2 0
4 2 0
5 2 0
6 2 0
7 2 0
8 2 0
9 2 0
10 2 0
11 2 0
12 2 0
13 2 0
14 2 0
15 2 0
16 2 0
17 2 0
18 2 0
19 2 0
20 2 0
21 2 0
0 3 0
1 3 0
2 3 0
3 3 0
4 3 0
5 3 0
6 3 0
7 3 0
8 3 0
9 3 0
10 3 0
11 3 0
12 3 0
13 3 0
14 3 0
15 3 0
16 3 0
17 3 0
18 3 0
19 3 0
20 3 0
21 3 0
0 4 0
1 4 0
2 4 0
3 4 0
4 4 0
5 4 0
6 4 0
7 4 0
8 4 0
9 4 0
10 4 0
11 4 0
12 4 0
13 4 0
14 4 0
15 4 0
16 4 0
17 4 0
18 4 0
19 4 0
20 4 0
21 4 0
0 5 0
1 5 0
2 5 0
3 5 0
4 5 0
5 5 0
6 5 0
7 5 0
8 5 0
9 5 0
10 5 0
11 5 0
12 5 0
13 5 0
14 5 0
15 5 0
16 5 0
17 5 0
18 5 0
19 5 0
20 5 0
21 5 0
0 6 0
1 6 0
2 6 0
3 6 0
4 6 0
5 6 0
6 6 0
7 6 0
8 6 0
9 6 0
10 6 0
11 6 0
12 6 0
13 6 0
14 6 0
15 6 0
16 6 0
17 6 0
18 6 0
19 6 0
20 6 0
21 6 0
0 7 0
1 7 0
2 7 0
3 7 0
4 7 0
5 7 0
6 7 0
7 7 0
8 7 0
9 7 0
10 7 0
11 7 0
12 7 0
13 7 0
14 7 0
15 7 0
16 7 0
17 7 0
18 7 0
19 7 0
20 7 0
21 7 0
0 8 0
1 8 0
2 8 0
3 8 0
4 8 0
5 8 0
6 8 0
7 8 0
8 8 0
9 8 0
10 8 0
11 8 0
12 8 0
13 8 0
14 8 0
15 8 0
16 8 0
17 8 0
18 8 0
19 8 0
20 8 0
21 8 0
0 9 0
1 9 0
2 9 0
3 9 0
4 9 0
5 9 0
6 9 0
7 9 0
8 9 0
9 9 0
10 9 0
11 9 0
12 9 0
13 9 0
14 9 0
15 9 0
16 9 0
17 9 0
18 9 0
19 9 0
20 9 0
21 9 0
0 10 0
1 10 0
2 10 0
3 10 0
4 10 0
5 10 0
6 10 0
7 10 0
8 10 0
9 10 0
10 10 0
11 10 0
12 10 0
13 10 0
14 10 0
15 10 0
16 10 0
17 10 0
18 10 0
19 10 0
20 10 0
21 10 0
0 11 0
1 11 0
2 11 0
3 11 0
4 11 0
5 11 0
6 11 0
7 11 0
8 11 0
9 11 0
10 11 0
11 11 0
12 11 0
13 11 0
14 11 0
15 11 0
16 11 0
17 11 0
18 11 0
19 11 0
20 11 0
21 11 0
0 12 0
1 12 0
2 12 0
3 12 0
4 12 0
5 12 0
6 12 0
7 12 0
8 12 0
9 12 0
10 12 0
11 12 0
12 12 0
13 12 0
14 12 0
15 12 0
16 12 0
17 12 0
18 12 0
19 12 0
20 12 0
21 12 0
0 13 0
1 13 0
2 13 0
3 13 0
4 13 0
5 13 0
6 13 0
7 13 0
8 13 0
9 13 0
10 13 0
11 13 0
12 13 0
13 13 0
14 13 0
15 13 0
16 13 0
17 13 0
18 13 0
19 13 0
20 13 0
21 13 0
0 14 0
1 14 0
2 14 0
3 14 0
4 14 0
5 14 0
6 14 0
7 14 0
8 14 0
9 14 0
10 14 0
11 14 0
12 14 0
13 14 0
14 14 0
15 14 0
16 14 0
17 14 0
18 14 0
19 14 0
20 14 0
21 14 0
0 15 0
1 15 0
2 15 0
3 15 0
4 15 0
5 15 0
6 15 0
7 15 0
8 15 0
9 15 0
10 15 0
11 15 0
12 15 0
13 15 0
14 15 0
15 15 0
16 15 0
17 15 0
18 15 0
19 15 0
20 15 0
21 15 0
0 16 0
1 16 0
2 16 0
3 16 0
4 16 0
5 16 0
6 16 0
7 16 0
8 16 0
9 16 0
10 16 0
11 16 0
12 16 0
13 16 0
14 16 0
15 16 0
16 16 0
17 16 0
18 16 0
19 16 0
20 16 0
21 16 0
0 17 0
1 17 0
2 17 0
3 17 0
4 17 0
5 17 0
6 17 0
7 17 0
8 17 0
9 17 0
10 17 0
11 17 0
12 17 0
13 17 0
14 17 0
15 17 0
16 17 0
17 17 0
18 17 0
19 17 0
20 17 0
21 17 0
0 18 0
1 18 0
2 18 0
3 18 0
4 18 0
5 18 0
6 18 0
7 18 0
8 18 0
9 18 0
10 18 0
11 18 0
12 18 0
13 18 0
14 18 0
15 18 0
16 18 0
17 18 0
18 18 0
19 18 0
20 18 0
21 18 0
0 19 0
1 19 0
2 19 0
3 19 0
4 19 0
5 19 0
6 19 0
7 19 0
8 19 0
9 19 0
10 19 0
11 19 0
12 19 0
13 19 0
14 19 0
15 19 0
16 19 0
17 19 0
18 19 0
19 19 0
20 19 0
21 19 0
0 20 0
1 20 0
2 20 0
3 20 0
4 20 0
5 20 0
6 20 0
7 20 0
8 20 0
9 20 0
10 20 0
11 20 0
12 20 0
13 20 0
14 20 0
15 20 0
16 20 0
17 20 0
18 20 0
19 20 0
20 20 0
21 20 0
0 21 0
1 21 0
2 21 0
3 21 0
4 21 0
5 21 0
6 21 0
7 21 0
8 21 0
9 21 0
10 21 0
11 21 0
12 21 0
13 21 0
14 21 0
15 21 0
16 21 0
17 21 0
18 21 0
19 21 0
20 21 0
21 21 0
0 0 1
1 0 1
2 0 1
3 0 1
4 0 1
5 0 1
6 0 1
7 0 1
8 0 1
9 0 1
10 0 1
11 0 1
12 0 1
13 0 1
14 0 1
15 0 1
16 0 1
17 0 1
18 0 1
19 0 1
20 0 1
21 0 1
0 1 1
1 1 1
2 1 1
3 1 1
4 1 1
5 1 1
6 1 1
7 1 1
8 1 1
9 1 1
10 1 1
11 1 1
12 1 1
13 1 1
14 1 1
15 1 1
16 1 1
17 1 1
18 1 1
19 1 1
20 1 1
21 1 1
0 2 1
1 2 1
2 2 1
3 2 1
4 2 1
5 2 1
6 2 1
7 2 1
8 2 1
9 2 1
10 2 1
11 2 1
12 2 1
13 2 1
14 2 1
15 2 1
16 2 1
17 2 1
18 2 1
19 2 1
20 2 1
21 2 1
0 3 1
1 3 1
2 3 1
3 3 1
4 3 1
5 3 1
6 3 1
7 3 1
8 3 1
9 3 1
10 3 1
11 3 1
12 3 1
13 3 1
14 3 1
15 3 1
16 3 1
17 3 1
18 3 1
19 3 1
20 3 1
21 3 1
0 4 1
1 4 1
2 4 1
3 4 1
4 4 1
5 4 1
6 4 1
7 4 1
8 4 1
9 4 1
10 4 1
11 4 1
12 4 1
13 4 1
14 4 1
15 4 1
16 4 1
17 4 1
18 4 1
19 4 1
20 4 1
21 4 1
0 5 1
1 5 1
2 5 1
3 5 1
4 5 1
5 5 1
6 5 1
7 5 1
8 5 1
9 5 1
10 5 1
11 5 1
12 5 1
13 5 1
14 5 1
15 5 1
16 5 1
17 5 1
18 5 1
19 5 1
20 5 1
21 5 1
0 6 1
1 6 1
2 6 1
3 6 1
4 6 1
5 6 1
6 6 1
7 6 1
8 6 1
9 6 1
10 6 1
11 6 1
12 6 1
13 6 1
14 6 1
15 6 1
16 6 1
17 6 1
18 6 1
19 6 1
20 6 1
21 6 1
0 7 1
1 7 1
2 7 1
3 7 1
4 7 1
5 7 1
6 7 1
7 7 1
8 7 1
9 7 1
10 7 1
11 7 1
12 7 1
13 7 1
14 7 1
15 7 1
16 7 1
17 7 1
18 7 1
19 7 1
20 7 1
21 7 1
0 8 1
1 8 1
2 8 1
3 8 1
4 8 1
5 8 1
6 8 1
7 8 1
8 8 1
9 8 1
10 8 1
11 8 1
12 8 1
13 8 1
14 8 1
15 8 1
16 8 1
17 8 1
18 8 1
19 8 1
20 8 1
21 8 1
0 9 1
1 9 1
2 9 1
3 9 1
4 9 1
5 9 1
6 9 1
7 9 1
8 9 1
9 9 1
10 9 1
11 9 1
12 9 1
13 9 1
14 9 1
15 9 1
16 9 1
17 9 1
18 9 1
19 9 1
20 9 1
21 9 1
0 10 1
1 10 1
2 10 1
3 10 1
4 10 1
5 10 1
6 10 1
7 10 1
8 10 1
9 10 1
10 10 1
11 10 1
12 10 1
13 10 1
14 10 1
15 10 1
16 10 1
17 10 1
18 10 1
19 10 1
20 10 1
21 10 1
0 11 1
1 11 1
2 11 1
3 11 1
4 11 1
5 11 1
6 11 1
7 11 1
8 11 1
9 11 1
10 11 1
11 11 1
12 11 1
13 11 1
14 11 1
15 11 1
16 11 1
17 11 1
18 11 1
19 11 1
20 11 1
21 11 1
0 12 1
1 12 1
2 12 1
3 12 1
4 12 1
5 12 1
6 12 1
7 12 1
8 12 1
9 12 1
10 12 1
11 12 1
12 12 1
13 12 1
14 12 1
15 12 1
16 12 1
17 12 1
18 12 1
19 12 1
20 12 1
21 12 1
0 13 1
1 13 1
2 13 1
3 13 1
4 13 1
5 13 1
6 13 1
7 13 1
8 13 1
9 13 1
10 13 1
11 13 1
12 13 1
13 13 1
14 13 1
15 13 1
16 13 1
17 13 1
18 13 1
19 13 1
20 13 1
21 13 1
0 14 1
1 14 1
2 14 1
3 14 1
4 14 1
5 14 1
6 14 1
7 14 1
8 14 1
9 14 1
10 14 1
11 14 1
12 14 1
13 14 1
14 14 1
15 14 1
16 14 1
17 14 1
18 14 1
19 14 1
20 14 1
21 14 1
0 15 1
1 15 1
2 15 1
3 15 1
4 15 1
5 15 1
6 15 1
7 15 1
8 15 1
9 15 1
10 15 1
11 15 1
12 15 1
13 15 1
14 15 1
15 15 1
16 15 1
17 15 1
18 15 1
19 15 1
20 15 1
21 15 1
0 16 1
1 16 1
2 16 1
3 16 1
4 16 1
5 16 1
6 16 1
7 16 1
8 16 1
9 16 1
10 16 1
11 16 1
12 16 1
13 16 1
14 16 1
15 16 1
16 16 1
17 16 1
18 16 1
19 16 1
20 16 1
21 16 1
0 17 1
1 17 1
2 17 1
3 17 1
4 17 1
5 17 1
6 17 1
7 17 1
8 17 1
9 17 1
10 17 1
11 17 1
12 17 1
13 17 1
14 17 1
15 17 1
16 17 1
17 17 1
18 17 1
19 17 1
20 17 1
21 17 1
0 18 1
1 18 1
2 18 1
3 18 1
4 18 1
5 18 1
6 18 1
7 18 1
8 18 1
9 18 1
10 18 1
11 18 1
12 18 1
13 18 1
14 18 1
15 18 1
16 18 1
17 18 1
18 18 1
19 18 1
20 18 1
21 18 1
0 19 1
1 19 1
2 19 1
3 19 1
4 19 1
5 19 1
6 19 1
7 19 1
8 19 1
9 19 1
10 19 1
11 19 1
12 19 1
13 19 1
14 19 1
15 19 1
16 19 1
17 19 1
18 19 1
19 19 1
20 19 1
21 19 1
0 20 1
1 20 1
2 20 1
3 20 1
4 20 1
5 20 1
6 20 1
7 20 1
8 20 1
9 20 1
10 20 1
11 20 1
12 20 1
13 20 1
14 20 1
15 20 1
16 20 1
17 20 1
18 20 1
19 20 1
20 20 1
21 20 1
0 21 1
1 21 1
2 21 1
3 21 1
4 21 1
5 21 1
6 21 1
7 21 1
8 21 1
9 21 1
10 21 1
11 21 1
12 21 1
13 21 1
14 21 1
15 21 1
16 21 1
17 21 1
18 21 1
19 21 1
20 21 1
21 21 1
CELLS 441 3969
8 0 1 23 22 484 485 507 506
8 22 23 45 44 506 507 529 528
8 44 45 67 66 528 529 551 550
8 66 67 89 88 550 551 573 572
8 88 89 111 110 572 573 595 594
8 110 111 133 132 594 595 617 616
8 132 133 155 154 616 617 639 638
8 154 155 177 176 638 639 661 660
8 176 177 199 198 660 661 683 682
8 198 199 221 220 682 683 705 704
8 220 221 243 242 704 705 727 726
8 242 243 265 264 726 727 749 748
8 264 265 287 286 748 749 771 770
8 286 287 309 308 770 771 793 792
8 308 309 331 330 792 793 815 814
8 330 331 353 352 814 815 837 836
8 352 353 375 374 836 837 859 858
8 374 375 397 396 858 859 881 880
8 396 397 419 418 880 881 903 902
8 418 419 441 440 902 903 925 924
8 440 441 463 462 924 925 947 946
8 1 2 24 23 485 486 508 507
8 23 24 46 45 507 508 530 529
8 45 46 68 67 529 530 552 551
8 67 68 90 89 551 552 574 573
8 89 90 112 111 573 574 596 595
8 111 112 134 133 595 596 618 617
8 133 134 156 155 617 618 640 639
8 155 156 178 177 639 640 662 661
8 177 178 200 199 661 662 684 683
8 199 200 222 221 683 684 706 705
8 221 222 244 243 705 706 728 727
8 243 244 266 265 727 728 750 749
8 265 266 288 287 749 750 772 771
8 287 288 310 309 771 772 794 793
8 309 310 332 331 793 794 816 815
8 331 332 354 353 815 816 838 837
8 353 354 376 375 837 838 860 859
8 375 376 398 397 859 860 882 881
8 397 398 420 419 881 882 904 903
8 419 420 442 441 903 904 926 925
8 441 442 464 463 925 926 948 947
8 2 3 25 24 486 487 509 508
8 24 25 47 46 508 509 531 530
8 46 47 69 68 530 531 553 552
8 68 69 91 90 552 553 575 574
8 90 91 113 112 574 575 597 596
8 112 113 135 134 596 597 619 618
8 134 135 157 156 618 619 641 640
8 156 157 179 178 640 641 663 662
8 178 179 201 200 662 663 685 684
8 200 201 223 222 684 685 707 706
8 222 223 245 244 706 707 729 728
8 244 245 267 266 728 729 751 750
8 266 267 289 288 750 751 773 772
8 288 289 311 310 772 773 795 794
8 310 311 333 332 794 795 817 816
8 332 333 355 354 816 817 839 838
8 354 355 377 376 838 839 861 860
8 376 377 399 398 860 861 883 882
8 398 399 421 420 882 883 905 904
8 420 421 443 442 904 905 927 926
8 442 443 465 464 926 927 949 948
8 3 4 26 25 487 488 510 509
8 25 26 48 47 509 510 532 531
8 47 48 70 69 531 532 554 553
8 69 70 92 91 553 554 576 575
8 91 92 114 113 575 576 598 597
8 113 114 136 135 597 598 620 619
8 135 136 158 157 619 620 642 641
8 157 158 180 179 641 642 664 663
8 179 180 202 201 663 664 686 685
8 201 202 224 223 685 686 708 707
8 223 224 246 245 707 708 730 729
8 245 246 268 267 729 730 752 751
8 267 268 290 289 751 752 774 773
8 289 290 312 311 773 774 796 795
8 311 312 334 333 795 796 818 817
8 333 334 356 355 817 818 840 839
8 355 356 378 377 839 840 862 861
8 377 378 400 399 861 862 884 883
8 399 400 422 421 883 884 906 905
8 421 422 444 443 905 906 928 927
8 443 444 466 465 927 928 950 949
8 4 5 27 26 488 489 511 510
8 26 27 49 48 510 511 533 532
8 48 49 71 70 532 533 555 554
8 70 71 93 92 554 555 577 576
8 92 93 115 114 576 577 599 598
8 114 115 137 136 598 599 621 620
8 136 137 159 158 620 621 643 642
8 158 159 181 180 642 643 665 664
[...]
POINT_DATA 968
SCALARS GLOBAL_ID int 1
LOOKUP_TABLE default
-1 
-1 
-1 
-1 
-1 
-1 
-1 
-1 
-1 
-1 
-1 
-1 
-1 
-1 
-1 
-1 
-1 
-1 
-1 
-1 
-1 
-1 
-1 
-1 
-1 
-1 
-1 
-1 
-1 
-1 
-1 
-1 
-1 
-1 
-1 
-1 
-1 
-1 
-1 
-1 
-1 
-1 
-1 
-1 
-1 
-1 
-1 
-1 
-1 
-1 
-1 
-1 
-1 
-1 
-1 
-1 
-1 
-1 
-1 
-1 
-1 
-1 
-1 
-1 
-1 
-1 
-1 
-1 
-1 
-1 
-1 
-1 
-1 
-1 
-1 
-1 
-1 
-1 
-1 
-1 
-1 
-1 
-1 
-1 
-1 
-1 
-1 
-1 
-1 
-1 
-1 
-1 
-1 
-1 
-1 
-1 
-1 
-1 
-1 
-1 
-1 
-1 
-1 
-1 
-1 
-1 
-1 
-1 
-1 
-1 
-1 
-1 
-1 
-1 
-1 
-1 
-1 
-1 
-1 
-1 
-1 
-1 
-1 
-1 
-1 
-1 
-1 
-1 
-1 
-1 
-1 
-1 
-1 
-1 
-1 
-1 
-1 
-1 
-1 
-1 
-1 
-1 
-1 
-1 
-1 
-1 
-1 
-1 
-1 
-1 
-1 
-1 
-1 
-1 
-1 
-1 
-1 
-1 
-1 
-1 
-1 
-1 
-1 
-1 
-1 
-1 
-1 
-1 
-1 
-1 
-1 
-1 
-1 
-1 
-1 
-1 
-1 
-1 
-1 
-1 
-1 
-1 
-1 
-1 
-1 
-1 
-1 
-1 
-1 
-1 
-1 
-1 
-1 
-1 
-1 
-1 
-1 
-1 
-1 
-1 
-1 
-1 
-1 
-1 
-1 
-1 
-1 
-1 
-1 
-1 
-1 
-1 
-1 
-1 
-1 
-1 
-1 
-1 
-1 
-1 
-1 
-1 
-1 
-1 
-1 
-1 
-1 
-1 
-1 
-1 
-1 
-1 
-1 
-1 
-1 
-1 
-1 
-1 
-1 
-1 
-1 
-1 
-1 
-1 
-1 
-1 
-1 
-1 
-1 
-1 
-1 
-1 
-1 
-1 
-1 
-1 
-1 
-1 
-1 
-1 
-1 
-1 
-1 
-1 
-1 
-1 
-1 
-1 
-1 
-1 
-1 
-1 
-1 
-1 
-1 
-1 
-1 
-1 
-1 
-1 
-1 
-1 
-1 
-1 
-1 
-1 
-1 
-1 
-1 
-1 
-1 
-1 
-1 
-1 
-1 
-1 
-1 
-1 
-1 
-1 
-1 
-1 
-1 
-1 
-1 
-1 
-1 
-1 
-1 
-1 
-1 
-1 
-1 
-1 
-1 
-1 
-1 
-1 
-1 
-1 
-1 
-1 
-1 
-1 
-1 
-1 
-1 
-1 
-1 
-1 
-1 
-1 
-1 
-1 
-1 
-1 
-1 
-1 
-1 
-1 
-1 
-1 
-1 
-1 
-1 
-1 
-1 
-1 
-1 
-1 
-1 
-1 
-1 
-1 
-1 
-1 
-1 
-1 
-1 
-1 
-1 
-1 
-1 
-1 
-1 
-1 
-1 
-1 
-1 
-1 
-1 
-1 
-1 
-1 
-1 
-1 
-1 
-1 
-1 
-1 
-1 
-1 
-1 
-1 
-1 
-1 
-1 
-1 
-1 
-1 
-1 
-1 
-1 
-1 
-1 
-1 
-1 
-1 
-1 
-1 
-1 
-1 
-1 
-1 
-1 
-1 
-1 
-1 
-1 
-1 
-1 
-1 
-1 
-1 
-1 
-1 
-1 
-1 
-1 
-1 
-1 
-1 
-1 
-1 
-1 
-1 
-1 
-1 
-1 
-1 
-1 
-1 
-1 
-1 
-1 
-1 
-1 
-1 
-1 
-1 
-1 
-1 
-1 
-1 
-1 
-1 
-1 
-1 
-1 
-1 
-1 
-1 
-1 
-1 
-1 
-1 
-1 
-1 
-1 
-1 
-1 
-1 
-1 
-1 
-1 
-1 
-1 
-1 
-1 
-1 
-1 
-1 
-1 
-1 
-1 
-1 
-1 
-1 
-1 
-1 
-1 
-1 
-1 
-1 
-1 
-1 
-1 
-1 
-1 
-1 
-1 
-1 
-1 
-1 
-1 
-1 
-1 
-1 
-1 
-1 
-1 
-1 
-1 
-1 
-1 
-1 
-1 
-1 
-1 
-1 
-1 
-1 
-1 
-1 
-1 
-1 
-1 
-1 
-1 
-1 
-1 
-1 
-1 
-1 
-1 
-1 
-1 
-1 
-1 
-1 
-1 
-1 
-1 
-1 
-1 
-1 
-1 
-1 
-1 
-1 
-1 
-1 
-1 
-1 
-1 
-1 
-1 
-1 
-1 
-1 
-1 
-1 
-1 
-1 
-1 
-1 
-1 
-1 
-1 
-1 
-1 
-1 
-1 
-1 
-1 
-1 
-1 
-1 
-1 
-1 
-1 
-1 
-1 
-1 
-1 
-1 
-1 
-1 
-1 
-1 
-1 
-1 
-1 
-1 
-1 
-1 
-1 
-1 
-1 
-1 
-1 
-1 
-1 
-1 
-1 
-1 
-1 
-1 
-1 
-1 
-1 
-1 
-1 
-1 
-1 
-1 
-1 
-1 
-1 
-1 
-1 
-1 
-1 
-1 
-1 
-1 
-1 
-1 
-1 
-1 
-1 
-1 
-1 
-1 
-1 
-1 
-1 
-1 
-1 
-1 
-1 
-1 
-1 
-1 
-1 
-1 
-1 
-1 
-1 
-1 
-1 
-1 
-1 
-1 
-1 
-1 
-1 
-1 
-1 
-1 
-1 
-1 
-1 
-1 
-1 
-1 
-1 
-1 
-1 
-1 
-1 
-1 
-1 
-1 
-1 
-1 
-1 
-1 
-1 
-1 
-1 
-1 
-1 
-1 
-1 
-1 
-1 
-1 
-1 
-1 
-1 
-1 
-1 
-1 
-1 
-1 
-1 
-1 
-1 
-1 
-1 
-1 
-1 
-1 
-1 
-1 
-1 
-1 
-1 
-1 
-1 
-1 
-1 
-1 
-1 
-1 
-1 
-1 
-1 
-1 
-1 
-1 
-1 
-1 
-1 
-1 
-1 
-1 
-1 
-1 
-1 
-1 
-1 
-1 
-1 
-1 
-1 
-1 
-1 
-1 
-1 
-1 
-1 
-1 
-1 
-1 
-1 
-1 
-1 
-1 
-1 
-1 
-1 
-1 
-1 
-1 
-1 
-1 
-1 
-1 
-1 
-1 
-1 
-1 
-1 
-1 
-1 
-1 
-1 
-1 
-1 
-1 
-1 
-1 
-1 
-1 
-1 
-1 
-1 
-1 
-1 
-1 
-1 
-1 
-1 
-1 
-1 
-1 
-1 
-1 
-1 
-1 
-1 
-1 
-1 
-1 
-1 
-1 
-1 
-1 
-1 
-1 
-1 
-1 
-1 
-1 
-1 
-1 
-1 
-1 
-1 
-1 
-1 
-1 
-1 
-1 
-1 
-1 
-1 
-1 
-1 
-1 
-1 
-1 
-1 
-1 
-1 
-1 
-1 
-1 
-1 
-1 
-1 
-1 
-1 
-1 
-1 
-1 
-1 
-1 
-1 
-1 
-1 
-1 
-1 
-1 
-1 
-1 
-1 
-1 
-1 
-1 
-1 
-1 
-1 
-1 
-1 
-1 
-1 
-1 
-1 
-1 
-1 
-1 
-1 
-1 
-1 
-1 
-1 
-1 
-1 
-1 
-1 
-1 
-1 
-1 
-1 
-1 
-1 
-1 
-1 
-1 
-1 
-1 
-1 
-1 
-1 
-1 
-1 
-1 
-1 
-1 
-1 
-1 
-1 
-1 
-1 
-1 
-1 
-1 
-1 
-1 
-1 
-1 
-1 
-1 
-1 
-1 
-1 
-1 
-1 
-1 
-1 
-1 
-1 
-1 
-1 
-1 
-1 
-1 
-1 
-1 
-1 
-1 
-1 
-1 
-1 
-1 
-1 
-1 
-1 
-1 
-1 
-1 
-1 
-1 
-1 
-1 
-1 
-1 
-1 
-1 
-1 
-1 
-1 
-1 
-1 
-1 
-1 
-1 
-1 
-1 
-1 
-1 
-1 
-1 
-1 
-1 
-1 
-1 
-1 
-1 
-1 
-1 
-1 
-1 
-1 
-1 
-1 
-1 
-1 
-1 
-1 
-1 
-1 
-1 
-1 
-1 
CELL_DATA 441
SCALARS GLOBAL_ID int 1
LOOKUP_TABLE default
-1 
-1 
-1 
-1 
-1 
-1 
-1 
-1 
-1 
-1 
-1 
-1 
-1 
-1 
-1 
-1 
-1 
-1 
-1 
-1 
-1 
-1 
-1 
-1 
-1 
-1 
-1 
-1 
-1 
-1 
-1 
-1 
-1 
-1 
-1 
-1 
-1 
-1 
-1 
-1 
-1 
-1 
-1 
-1 
-1 
-1 
-1 
-1 
-1 
-1 
-1 
-1 
-1 
-1 
-1 
-1 
-1 
-1 
-1 
-1 
-1 
-1 
-1 
-1 
-1 
-1 
-1 
-1 
-1 
-1 
-1 
-1 
-1 
-1 
-1 
-1 
-1 
-1 
-1 
-1 
-1 
-1 
-1 
-1 
-1 
-1 
-1 
-1 
-1 
-1 
-1 
-1 
-1 
-1 
-1 
-1 
-1 
-1 
-1 
-1 
-1 
-1 
-1 
-1 
-1 
-1 
-1 
-1 
-1 
-1 
-1 
-1 
-1 
-1 
-1 
-1 
-1 
-1 
-1 
-1 
-1 
-1 
-1 
-1 
-1 
-1 
-1 
-1 
-1 
-1 
-1 
-1 
-1 
-1 
-1 
-1 
-1 
-1 
-1 
-1 
-1 
-1 
-1 
-1 
-1 
-1 
-1 
-1 
-1 
-1 
-1 
-1 
-1 
-1 
-1 
-1 
-1 
-1 
-1 
-1 
-1 
-1 
-1 
-1 
-1 
-1 
-1 
-1 
-1 
-1 
-1 
-1 
-1 
-1 
-1 
-1 
-1 
-1 
-1 
-1 
-1 
-1 
-1 
-1 
-1 
-1 
-1 
-1 
-1 
-1 
-1 
-1 
-1 
-1 
-1 
-1 
-1 
-1 
-1 
-1 
-1 
-1 
-1 
-1 
-1 
-1 
-1 
-1 
-1 
-1 
-1 
-1 
-1 
-1 
-1 
-1 
-1 
-1 
-1 
-1 
-1 
-1 
-1 
-1 
-1 
-1 
-1 
-1 
-1 
-1 
-1 
-1 
-1 
-1 
-1 
-1 
-1 
-1 
-1 
-1 
-1 
-1 
-1 
-1 
-1 
-1 
-1 
-1 
-1 
-1 
-1 
-1 
-1 
-1 
-1 
-1 
-1 
-1 
-1 
-1 
-1 
-1 
-1 
-1 
-1 
-1 
-1 
-1 
-1 
-1 
-1 
-1 
-1 
-1 
-1 
-1 
-1 
-1 
-1 
-1 
-1 
-1 
-1 
-1 
-1 
-1 
-1 
-1 
-1 
-1 
-1 
-1 
-1 
-1 
-1 
-1 
-1 
-1 
-1 
-1 
-1 
-1 
-1 
-1 
-1 
-1 
-1 
-1 
-1 
-1 
-1 
-1 
-1 
-1 
-1 
-1 
-1 
-1 
-1 
-1 
-1 
-1 
-1 
-1 
-1 
-1 
-1 
-1 
-1 
-1 
-1 
-1 
-1 
-1 
-1 
-1 
-1 
-1 
-1 
-1 
-1 
-1 
-1 
-1 
-1 
-1 
-1 
-1 
-1 
-1 
-1 
-1 
-1 
-1 
-1 
-1 
-1 
-1 
-1 
-1 
-1 
-1 
-1 
-1 
-1 
-1 
-1 
-1 
-1 
-1 
-1 
-1 
-1 
-1 
-1 
-1 
-1 
-1 
-1 
-1 
-1 
-1 
-1 
-1 
-1 
-1 
-1 
-1 
-1 
-1 
-1 
-1 
-1 
-1 
-1 
-1 
-1 
-1 
-1 
-1 
-1 
-1 
-1 
-1 
-1 
-1 
-1 
-1 
-1 
-1 
-1 
-1 
-1 
-1 
-1 
-1 
-1 
-1 
-1 
-1 
-1 
-1 
-1 
-1 
-1 
-1 
-1 
-1 
-1 
-1 
-1 
-1 
-1 
-1 
-1 
-1 
-1 
-1 
-1 
-1 
-1 
SCALARS pressure double 1
LOOKUP_TABLE default
100 
93.22616748 
89.03655311 
86.05933226 
83.72715378 
81.77298531 
80.05314009 
78.48207319 
77.00639089 
75.59390711 
74.2285251 
72.90744615 
71.63925143 
70.44185192 
69.33929901 
68.35692964 
67.5160957 
66.83169009 
66.31219354 
65.96038514 
65.77398374 
93.22616748 
90.50202271 
87.73419965 
85.33533824 
83.2777819 
81.47325989 
79.84384656 
78.33025017 
76.89017597 
75.49666734 
74.13651024 
72.80890279 
71.52454217 
70.30457958 
69.17795102 
68.17525639 
67.32022523 
66.62736119 
66.10351853 
65.74979554 
65.56269288 
89.03655311 
87.73419965 
85.9837961 
84.19686931 
82.50745586 
80.93522897 
79.45973127 
78.04956744 
76.67522544 
75.31661376 
73.96478339 
72.62189905 
71.30187281 
70.03180999 
68.85168045 
67.80587691 
66.92277158 
66.21456033 
65.68365269 
65.32725878 
65.13936829 
86.05933226 
85.33533824 
84.19686931 
82.8923614 
81.55549976 
80.23986153 
78.95323635 
77.67924872 
76.39359352 
75.08130917 
73.73775803 
72.36747441 
70.98618181 
69.62730716 
68.35032306 
67.23386049 
66.31101543 
65.58494628 
65.04809154 
64.69072481 
64.50301871 
83.72715378 
83.2777819 
82.50745586 
81.55549976 
80.52106213 
79.45747801 
78.37917613 
77.26852264 
76.0890888 
74.83001195 
73.49211366 
72.08030707 
70.60564978 
69.09958135 
67.64798363 
66.42842273 
65.46308495 
64.72654397 
64.19175569 
63.83891533 
63.65384003 
81.77298531 
81.47325989 
80.93522897 
80.23986153 
79.45747801 
78.63433872 
77.78468455 
76.87633286 
75.8163123 
74.61163476 
73.27616313 
71.81316883 
70.21484838 
68.47662907 
66.67355969 
65.32916693 
64.34701423 
63.62679317 
63.11214763 
62.77377046 
62.59522203 
80.05314009 
79.84384656 
79.45973127 
78.95323635 
78.37917613 
77.78468455 
77.19821291 
76.58739806 
75.64195726 
74.4796153 
73.14474646 
71.639525 
69.92303885 
67.87838195 
65.20095205 
63.82843657 
62.9298598 
62.28198533 
61.81507914 
61.5035954 
61.3358028 
78.48207319 
78.33025017 
78.04956744 
77.67924872 
77.26852264 
76.87633286 
76.58739806 
75.98894486 
74.67681567 
73.27312781 
71.71732646 
69.96288484 
67.87437835 
65.01998472 
62.38349766 
61.81493061 
61.22331039 
60.71711054 
60.32180528 
60.0453423 
59.89024417 
77.00639089 
76.89017597 
76.67522544 
76.39359352 
76.0890888 
75.8163123 
75.64195726 
74.67681567 
72.79046538 
70.97760591 
69.08601309 
67.02815007 
64.67238515 
61.82048894 
60.07721271 
59.78581579 
59.39287345 
59.00262841 
58.66944502 
58.42246627 
58.27682173 
75.59390711 
75.49666734 
75.31661376 
75.08130917 
74.83001195 
74.61163476 
74.4796153 
73.27312781 
70.97760591 
68.86042473 
66.74326899 
64.53806509 
62.14693986 
59.48112955 
58.01154772 
57.81957557 
57.52117578 
57.19237982 
56.89088865 
56.65595732 
56.51137835 
74.2285251 
74.13651024 
73.96478339 
73.73775803 
73.49211366 
73.27616313 
73.14474646 
71.71732646 
69.08601309 
66.74326899 
64.48860799 
62.23394699 
59.89624088 
57.41227567 
56.08984451 
55.92083161 
55.64089103 
55.31567383 
55.00551108 
54.75711653 
54.60122281 
72.90744615 
72.80890279 
72.62189905 
72.36747441 
72.08030707 
71.81316883 
71.639525 
69.96288484 
67.02815007 
64.53806509 
62.23394699 
60.012874 
57.79180101 
55.5016767 
54.29043142 
54.0934538 
53.76604136 
53.3837557 
53.01712798 
52.72304849 
52.54017253 
71.63925143 
71.52454217 
71.30187281 
70.98618181 
70.60564978 
70.21484838 
69.92303885 
67.87437835 
64.67238515 
62.14693986 
59.89624088 
57.79180101 
55.75641246 
53.72102391 
52.64157195 
52.35573235 
51.90473466 
51.39431271 
50.91309938 
50.53284807 
50.30366046 
70.44185192 
70.30457958 
70.03180999 
69.62730716 
69.09958135 
68.47662907 
67.87838195 
65.01998472 
61.82048894 
59.48112955 
57.41227567 
55.5016767 
53.72102391 
52.06172974 
51.23125301 
50.74017049 
50.05912573 
49.33122628 
48.66215545 
48.14273267 
47.84187174 
69.33929901 
69.17795102 
68.85168045 
68.35032306 
67.64798363 
66.67355969 
65.20095205 
62.38349766 
60.07721271 
58.01154772 
56.08984451 
54.29043142 
52.64157195 
51.23125301 
50.26159667 
49.26728797 
48.21276837 
47.16125812 
46.21181073 
45.47960185 
45.06892257 
68.35692964 
68.17525639 
67.80587691 
67.23386049 
66.42842273 
65.32916693 
63.82843657 
61.81493061 
59.78581579 
57.81957557 
55.92083161 
54.0934538 
52.35573235 
50.74017049 
49.26728797 
47.80249373 
46.31038015 
44.83630397 
43.48999195 
42.43381026 
41.84594538 
67.5160957 
67.32022523 
66.92277158 
66.31101543 
65.46308495 
64.34701423 
62.9298598 
61.22331039 
59.39287345 
57.52117578 
55.64089103 
53.76604136 
51.90473466 
50.05912573 
48.21276837 
46.31038015 
44.33286434 
42.32541928 
40.41894797 
38.85198171 
37.95094014 
66.83169009 
66.62736119 
66.21456033 
65.58494628 
64.72654397 
63.62679317 
62.28198533 
60.71711054 
59.00262841 
57.19237982 
55.31567383 
53.3837557 
51.39431271 
49.33122628 
47.16125812 
44.83630397 
42.32541928 
39.65131778 
36.94456008 
34.53103597 
33.01218403 
66.31219354 
66.10351853 
65.68365269 
65.04809154 
64.19175569 
63.11214763 
61.81507914 
60.32180528 
58.66944502 
56.89088865 
55.00551108 
53.01712798 
50.91309938 
48.66215545 
46.21181073 
43.48999195 
40.41894797 
36.94456008 
33.10914425 
29.23838837 
26.34418492 
65.96038514 
65.74979554 
65.32725878 
64.69072481 
63.83891533 
62.77377046 
61.5035954 
60.0453423 
58.42246627 
56.65595732 
54.75711653 
52.72304849 
50.53284807 
48.14273267 
45.47960185 
42.43381026 
38.85198171 
34.53103597 
29.23838837 
22.89112101 
16.50668543 
65.77398374 
65.56269288 
65.13936829 
64.50301871 
63.65384003 
62.59522203 
61.3358028 
59.89024417 
58.27682173 
56.51137835 
54.60122281 
52.54017253 
50.30366046 
47.84187174 
45.06892257 
41.84594538 
37.95094014 
33.01218403 
26.34418492 
16.50668543 
0 
SCALARS saturation double 1
LOOKUP_TABLE default
0.8 
0.7938762574 
0.7875339031 
0.779746424 
0.7708100767 
0.7610815125 
0.7508896549 
0.7405070918 
0.7301314691 
0.7198731734 
0.7097537246 
0.6997108354 
0.6896009416 
0.6791907671 
0.6681301392 
0.6558908541 
0.6416164438 
0.6236573941 
0.5979405158 
0.5507822758 
0.4145175854 
0.7938762574 
0.7891256991 
0.7828855894 
0.7752840526 
0.7665745055 
0.75706483 
0.7470672518 
0.7368633365 
0.7266732593 
0.7166306311 
0.706775249 
0.6970564104 
0.6873325358 
0.6773573226 
0.6667479126 
0.6549290777 
0.641009695 
0.6233244841 
0.5977963788 
0.5507373421 
0.4143943906 
0.7875339031 
0.7828855894 
0.7767514598 
0.7693227043 
0.7608249603 
0.751525955 
0.7417211762 
0.7317102013 
0.7217550278 
0.7120263411 
0.7025890175 
0.6934057033 
0.6843312715 
0.6750865974 
0.6652139293 
0.6540294974 
0.640585012 
0.6232104388 
0.597852416 
0.5508549639 
0.4144661474 
0.779746424 
0.7752840526 
0.7693227043 
0.7620834451 
0.7537734667 
0.744629664 
0.7349402083 
0.7250498488 
0.7153088992 
0.7059392042 
0.6970314642 
0.6885656717 
0.6803995731 
0.6722140541 
0.6634258757 
0.6531175976 
0.6402609498 
0.6232100475 
0.5979752334 
0.5509643088 
0.4144234954 
0.7708100767 
0.7665745055 
0.7608249603 
0.7537734667 
0.745594584 
0.7364802662 
0.7267026582 
0.7166973786 
0.7070427223 
0.6980023798 
0.6896693821 
0.682048609 
0.675036322 
0.6683067591 
0.6611099801 
0.6519931997 
0.6398452914 
0.6231152811 
0.5979401253 
0.5508153394 
0.4138632062 
0.7610815125 
0.75706483 
0.751525955 
0.744629664 
0.7364802662 
0.7271605963 
0.7168247683 
0.7060079873 
0.6961252853 
0.687267331 
0.679425928 
0.6726416885 
0.6669495489 
0.6621731139 
0.6574715968 
0.6500942908 
0.6388832112 
0.6225314612 
0.597401885 
0.5500893047 
0.412326662 
0.7508896549 
0.7470672518 
0.7417211762 
0.7349402083 
0.7267026582 
0.7168247683 
0.7048292482 
0.6901446919 
0.6794475548 
0.6704298281 
0.6627124322 
0.6563733951 
0.6517894338 
0.6495021437 
0.6493927997 
0.6455723236 
0.6362578376 
0.6207536331 
0.5959037231 
0.5484652859 
0.4094024014 
0.7405070918 
0.7368633365 
0.7317102013 
0.7250498488 
0.7166973786 
0.7060079873 
0.6901446919 
0.217840572 
0.2119923013 
0.2133935992 
0.2143791448 
0.2155081088 
0.2175536484 
0.2225413929 
0.6436907096 
0.6404865919 
0.632055896 
0.6174766868 
0.593199578 
0.545813428 
0.4049071011 
0.7301314691 
0.7266732593 
0.7217550278 
0.7153088992 
0.7070427223 
0.6961252853 
0.6794475548 
0.2119923013 
0.2000051078 
0.2000036042 
0.200004475 
0.2000054889 
0.2000072758 
0.2000113338 
0.6373515204 
0.6348479497 
0.627006036 
0.6132091493 
0.5895834731 
0.5423788361 
0.3990353812 
0.7198731734 
0.7166306311 
0.7120263411 
0.7059392042 
0.6980023798 
0.687267331 
0.6704298281 
0.2133935992 
0.2000036042 
0.2 
0.2 
0.2 
0.2 
0.2 
0.6305268868 
0.6287235506 
0.6214293546 
0.6083721013 
0.5854619975 
0.5385836677 
0.3922448778 
0.7097537246 
0.706775249 
0.7025890175 
0.6970314642 
0.6896693821 
0.679425928 
0.6627124322 
0.2143791448 
0.200004475 
0.2 
0.2 
0.2 
0.2 
0.2 
0.6232521587 
0.6221062381 
0.6154627847 
0.6032407492 
0.5811993968 
0.5348813945 
0.3851905562 
0.6997108354 
0.6970564104 
0.6934057033 
0.6885656717 
0.682048609 
0.6726416885 
0.6563733951 
0.2155081088 
0.2000054889 
0.2 
0.2 
0.2 
0.2 
0.2 
0.6153640301 
0.6148481997 
0.6091065052 
0.5979715843 
0.5770889037 
0.5317036939 
0.3788244096 
0.6896009416 
0.6873325358 
0.6843312715 
0.6803995731 
0.675036322 
0.6669495489 
0.6517894338 
0.2175536484 
0.2000072758 
0.2 
0.2 
0.2 
0.2 
0.2 
0.6063392028 
0.6065428671 
0.602166642 
0.5925768371 
0.573329217 
0.5294492691 
0.3745619525 
0.6791907671 
0.6773573226 
0.6750865974 
0.6722140541 
0.6683067591 
0.6621731139 
0.6495021437 
0.2225413929 
0.2000113338 
0.2 
0.2 
0.2 
0.2 
0.2 
0.5945801579 
0.5960614235 
0.5939480724 
0.586734573 
0.5699124083 
0.5284439983 
0.3742016323 
0.6681301392 
0.6667479126 
0.6652139293 
0.6634258757 
0.6611099801 
0.6574715968 
0.6493927997 
0.6436907096 
0.6373515204 
0.6305268868 
0.6232521587 
0.6153640301 
0.6063392028 
0.5945801579 
0.585466246 
0.5842319264 
0.5838384029 
0.5797008673 
0.5664159867 
0.5287931956 
0.379380794 
0.6558908541 
0.6549290777 
0.6540294974 
0.6531175976 
0.6519931997 
0.6500942908 
0.6455723236 
0.6404865919 
0.6348479497 
0.6287235506 
0.6221062381 
0.6148481997 
0.6065428671 
0.5960614235 
0.5842319264 
0.5772590813 
0.5746057027 
0.5718521644 
0.562364476 
0.5302693528 
0.3909735978 
0.6416164438 
0.641009695 
0.640585012 
0.6402609498 
0.6398452914 
0.6388832112 
0.6362578376 
0.632055896 
0.627006036 
0.6214293546 
0.6154627847 
0.6091065052 
0.602166642 
0.5939480724 
0.5838384029 
0.5746057027 
0.5686872673 
0.5649533445 
0.5580317925 
0.5325129031 
0.4090083334 
0.6236573941 
0.6233244841 
0.6232104388 
0.6232100475 
0.6231152811 
0.6225314612 
0.6207536331 
0.6174766868 
0.6132091493 
0.6083721013 
0.6032407492 
0.5979715843 
0.5925768371 
0.586734573 
0.5797008673 
0.5718521644 
0.5649533445 
0.5599273892 
0.5541858099 
0.5352475166 
0.4328073165 
0.5979405158 
0.5977963788 
0.597852416 
0.5979752334 
0.5979401253 
0.597401885 
0.5959037231 
0.593199578 
0.5895834731 
0.5854619975 
0.5811993968 
0.5770889037 
0.573329217 
0.5699124083 
0.5664159867 
0.562364476 
0.5580317925 
0.5541858099 
0.5501386626 
0.5377067222 
0.460635702 
0.5507822758 
0.5507373421 
0.5508549639 
0.5509643088 
0.5508153394 
0.5500893047 
0.5484652859 
0.545813428 
0.5423788361 
0.5385836677 
0.5348813945 
0.5317036939 
0.5294492691 
0.5284439983 
0.5287931956 
0.5302693528 
0.5325129031 
0.5352475166 
0.5377067222 
0.5348052309 
0.4873255836 
0.4145175854 
0.4143943906 
0.4144661474 
0.4144234954 
0.4138632062 
0.412326662 
0.4094024014 
0.4049071011 
0.3990353812 
0.3922448778 
0.3851905562 
0.3788244096 
0.3745619525 
0.3742016323 
0.379380794 
0.3909735978 
0.4090083334 
0.4328073165 
0.460635702 
0.4873255836 
0.4859746178 
SCALARS permeabilityx double 1
LOOKUP_TABLE default
1 
1 
1 
1 
1 
1 
1 
1 
1 
1 
1 
1 
1 
1 
1 
1 
1 
1 
1 
1 
1 
1 
1 
1 
1 
1 
1 
1 
1 
1 
1 
1 
1 
1 
1 
1 
1 
1 
1 
1 
1 
1 
1 
1 
1 
1 
1 
1 
1 
1 
1 
1 
1 
1 
1 
1 
1 
1 
1 
1 
1 
1 
1 
1 
1 
1 
1 
1 
1 
1 
1 
1 
1 
1 
1 
1 
1 
1 
1 
1 
1 
1 
1 
1 
1 
1 
1 
1 
1 
1 
1 
1 
1 
1 
1 
1 
1 
1 
1 
1 
1 
1 
1 
1 
1 
1 
1 
1 
1 
1 
1 
1 
1 
1 
1 
1 
1 
1 
1 
1 
1 
1 
1 
1 
1 
1 
1 
1 
1 
1 
1 
1 
1 
1 
1 
1 
1 
1 
1 
1 
1 
1 
1 
1 
1 
1 
1 
1 
1 
1 
1 
1 
1 
1 
0.001 
0.001 
0.001 
0.001 
0.001 
0.001 
0.001 
1 
1 
1 
1 
1 
1 
1 
1 
1 
1 
1 
1 
1 
1 
0.001 
0.001 
0.001 
0.001 
0.001 
0.001 
0.001 
1 
1 
1 
1 
1 
1 
1 
1 
1 
1 
1 
1 
1 
1 
0.001 
0.001 
0.001 
0.001 
0.001 
0.001 
0.001 
1 
1 
1 
1 
1 
1 
1 
1 
1 
1 
1 
1 
1 
1 
0.001 
0.001 
0.001 
0.001 
0.001 
0.001 
0.001 
1 
1 
1 
1 
1 
1 
1 
1 
1 
1 
1 
1 
1 
1 
0.001 
0.001 
0.001 
0.001 
0.001 
0.001 
0.001 
1 
1 
1 
1 
1 
1 
1 
1 
1 
1 
1 
1 
1 
1 
0.001 
0.001 
0.001 
0.001 
0.001 
0.001 
0.001 
1 
1 
1 
1 
1 
1 
1 
1 
1 
1 
1 
1 
1 
1 
0.001 
0.001 
0.001 
0.001 
0.001 
0.001 
0.001 
1 
1 
1 
1 
1 
1 
1 
1 
1 
1 
1 
1 
1 
1 
1 
1 
1 
1 
1 
1 
1 
1 
1 
1 
1 
1 
1 
1 
1 
1 
1 
1 
1 
1 
1 
1 
1 
1 
1 
1 
1 
1 
1 
1 
1 
1 
1 
1 
1 
1 
1 
1 
1 
1 
1 
1 
1 
1 
1 
1 
1 
1 
1 
1 
1 
1 
1 
1 
1 
1 
1 
1 
1 
1 
1 
1 
1 
1 
1 
1 
1 
1 
1 
1 
1 
1 
1 
1 
1 
1 
1 
1 
1 
1 
1 
1 
1 
1 
1 
1 
1 
1 
1 
1 
1 
1 
1 
1 
1 
1 
1 
1 
1 
1 
1 
1 
1 
1 
1 
1 
1 
1 
1 
1 
1 
1 
1 
1 
1 
1 
1 
1 
1 
1 
1 
1 
1 
1 
1 
1 
1 
1 
1 
1 
1 
1 
1 
1 
1 
1 
1 
1 
1 
1 
