# vtk DataFile Version 3.0
MOAB 5.4.1
ASCII
DATASET UNSTRUCTURED_GRID
POINTS 968 double
0 0 0
1 0 0
2 0 0
3 0 0
4 0 0
5 0 0
6 0 0
7 0 0
8 0 0
9 0 0
10 0 0
11 0 0
12 0 0
13 0 0
14 0 0
15 0 0
16 0 0
17 0 0
18 0 0
19 0 0
20 0 0
21 0 0
0 1 0
1 1 0
2 1 0
3 1 0
4 1 0
5 1 0
6 1 0
7 1 0
8 1 0
9 1 0
10 1 0
11 1 0
12 1 0
13 1 0
14 1 0
15 1 0
16 1 0
17 1 0
18 1 0
19 1 0
20 1 0
21 1 0
0 2 0
1 2 0
2 2 0
3 2 0
4 2 0
5 2 0
6 2 0
7 2 0
8 2 0
9 2 0
10 2 0
11 2 0
12 2 0
13 2 0
14 2 0
15 2 0
16 2 0
17 2 0
18 2 0
19 2 0
20 2 0
21 2 0
0 3 0
1 3 0
2 3 0
3 3 0
4 3 0
5 3 0
6 3 0
7 3 0
8 3 0
9 3 0
10 3 0
11 3 0
12 3 0
13 3 0
14 3 0
15 3 0
16 3 0
17 3 0
18 3 0
19 3 0
20 3 0
21 3 0
0 4 0
1 4 0
2 4 0
3 4 0
4 4 0
5 4 0
6 4 0
7 4 0
8 4 0
9 4 0
10 4 0
11 4 0
12 4 0
13 4 0
14 4 0
15 4 0
16 4 0
17 4 0
18 4 0
19 4 0
20 4 0
21 4 0
0 5 0
1 5 0
2 5 0
3 5 0
4 5 0
5 5 0
6 5 0
7 5 0
8 5 0
9 5 0
10 5 0
11 5 0
12 5 0
13 5 0
14 5 0
15 5 0
16 5 0
17 5 0
18 5 0
19 5 0
20 5 0
21 5 0
0 6 0
1 6 0
2 6 0
3 6 0
4 6 0
5 6 0
6 6 0
7 6 0
8 6 0
9 6 0
10 6 0
11 6 0
12 6 0
13 6 0
14 6 0
15 6 0
16 6 0
17 6 0
18 6 0
19 6 0
20 6 0
21 6 0
0 7 0
1 7 0
2 7 0
3 7 0
4 7 0
5 7 0
6 7 0
7 7 0
8 7 0
9 7 0
10 7 0
11 7 0
12 7 0
13 7 0
14 7 0
15 7 0
16 7 0
17 7 0
18 7 0
19 7 0
20 7 0
21 7 0
0 8 0
1 8 0
2 8 0
3 8 0
4 8 0
5 8 0
6 8 0
7 8 0
8 8 0
9 8 0
10 8 0
11 8 0
12 8 0
13 8 0
14 8 0
15 8 0
16 8 0
17 8 0
18 8 0
19 8 0
20 8 0
21 8 0
0 9 0
1 9 0
2 9 0
3 9 0
4 9 0
5 9 0
6 9 0
7 9 0
8 9 0
9 9 0
10 9 0
11 9 0
12 9 0
13 9 0
14 9 0
15 9 0
16 9 0
17 9 0
18 9 0
19 9 0
20 9 0
21 9 0
0 10 0
1 10 0
2 10 0
3 10 0
4 10 0
5 10 0
6 10 0
7 10 0
8 10 0
9 10 0
10 10 0
11 10 0
12 10 0
13 10 0
14 10 0
15 10 0
16 10 0
17 10 0
18 10 0
19 10 0
20 10 0
21 10 0
0 11 0
1 11 0
2 11 0
3 11 0
4 11 0
5 11 0
6 11 0
7 11 0
8 11 0
9 11 0
10 11 0
11 11 0
12 11 0
13 11 0
14 11 0
15 11 0
16 11 0
17 11 0
18 11 0
19 11 0
20 11 0
21 11 0
0 12 0
1 12 0
2 12 0
3 12 0
4 12 0
5 12 0
6 12 0
7 12 0
8 12 0
9 12 0
10 12 0
11 12 0
12 12 0
13 12 0
14 12 0
15 12 0
16 12 0
17 12 0
18 12 0
19 12 0
20 12 0
21 12 0
0 13 0
1 13 0
2 13 0
3 13 0
4 13 0
5 13 0
6 13 0
7 13 0
8 13 0
9 13 0
10 13 0
11 13 0
12 13 0
13 13 0
14 13 0
15 13 0
16 13 0
17 13 0
18 13 0
19 13 0
20 13 0
21 13 0
0 14 0
1 14 0
2 14 0
3 14 0
4 14 0
5 14 0
6 14 0
7 14 0
8 14 0
9 14 0
10 14 0
11 14 0
12 14 0
13 14 0
14 14 0
15 14 0
16 14 0
17 14 0
18 14 0
19 14 0
20 14 0
21 14 0
0 15 0
1 15 0
2 15 0
3 15 0
4 15 0
5 15 0
6 15 0
7 15 0
8 15 0
9 15 0
10 15 0
11 15 0
12 15 0
13 15 0
14 15 0
15 15 0
16 15 0
17 15 0
18 15 0
19 15 0
20 15 0
21 15 0
0 16 0
1 16 0
2 16 0
3 16 0
4 16 0
5 16 0
6 16 0
7 16 0
8 16 0
9 16 0
10 16 0
11 16 0
12 16 0
13 16 0
14 16 0
15 16 0
16 16 0
17 16 0
18 16 0
19 16 0
20 16 0
21 16 0
0 17 0
1 17 0
2 17 0
3 17 0
4 17 0
5 17 0
6 17 0
7 17 0
8 17 0
9 17 0
10 17 0
11 17 0
12 17 0
13 17 0
14 17 0
15 17 0
16 17 0
17 17 0
18 17 0
19 17 0
20 17 0
21 17 0
0 18 0
1 18 0
2 18 0
3 18 0
4 18 0
5 18 0
6 18 0
7 18 0
8 18 0
9 18 0
10 18 0
11 18 0
12 18 0
13 18 0
14 18 0
15 18 0
16 18 0
17 18 0
18 18 0
19 18 0
20 18 0
21 18 0
0 19 0
1 19 0
2 19 0
3 19 0
4 19 0
5 19 0
6 19 0
7 19 0
8 19 0
9 19 0
10 19 0
11 19 0
12 19 0
13 19 0
14 19 0
15 19 0
16 19 0
17 19 0
18 19 0
19 19 0
20 19 0
21 19 0
0 20 0
1 20 0
2 20 0
3 20 0
4 20 0
5 20 0
6 20 0
7 20 0
8 20 0
9 20 0
10 20 0
11 20 0
12 20 0
13 20 0
14 20 0
15 20 0
16 20 0
17 20 0
18 20 0
19 20 0
20 20 0
21 20 0
0 21 0
1 21 0
2 21 0
3 21 0
4 21 0
5 21 0
6 21 0
7 21 0
8 21 0
9 21 0
10 21 0
11 21 0
12 21 0
13 21 0
14 21 0
15 21 0
16 21 0
17 21 0
18 21 0
19 21 0
20 21 0
21 21 0
0 0 1
1 0 1
2 0 1
3 0 1
4 0 1
5 0 1
6 0 1
7 0 1
8 0 1
9 0 1
10 0 1
11 0 1
12 0 1
13 0 1
14 0 1
15 0 1
16 0 1
17 0 1
18 0 1
19 0 1
20 0 1
21 0 1
0 1 1
1 1 1
2 1 1
3 1 1
4 1 1
5 1 1
6 1 1
7 1 1
8 1 1
9 1 1
10 1 1
11 1 1
12 1 1
13 1 1
14 1 1
15 1 1
16 1 1
17 1 1
18 1 1
19 1 1
20 1 1
21 1 1
0 2 1
1 2 1
2 2 1
3 2 1
4 2 1
5 2 1
6 2 1
7 2 1
8 2 1
9 2 1
10 2 1
11 2 1
12 2 1
13 2 1
14 2 1
15 2 1
16 2 1
17 2 1
18 2 1
19 2 1
20 2 1
21 2 1
0 3 1
1 3 1
2 3 1
3 3 1
4 3 1
5 3 1
6 3 1
7 3 1
8 3 1
9 3 1
10 3 1
11 3 1
12 3 1
13 3 1
14 3 1
15 3 1
16 3 1
17 3 1
18 3 1
19 3 1
20 3 1
21 3 1
0 4 1
1 4 1
2 4 1
3 4 1
4 4 1
5 4 1
6 4 1
7 4 1
8 4 1
9 4 1
10 4 1
11 4 1
12 4 1
13 4 1
14 4 1
15 4 1
16 4 1
17 4 1
18 4 1
19 4 1
20 4 1
21 4 1
0 5 1
1 5 1
2 5 1
3 5 1
4 5 1
5 5 1
6 5 1
7 5 1
8 5 1
9 5 1
10 5 1
11 5 1
12 5 1
13 5 1
14 5 1
15 5 1
16 5 1
17 5 1
18 5 1
19 5 1
20 5 1
21 5 1
0 6 1
1 6 1
2 6 1
3 6 1
4 6 1
5 6 1
6 6 1
7 6 1
8 6 1
9 6 1
10 6 1
11 6 1
12 6 1
13 6 1
14 6 1
15 6 1
16 6 1
17 6 1
18 6 1
19 6 1
20 6 1
21 6 1
0 7 1
1 7 1
2 7 1
3 7 1
4 7 1
5 7 1
6 7 1
7 7 1
8 7 1
9 7 1
10 7 1
11 7 1
12 7 1
13 7 1
14 7 1
15 7 1
16 7 1
17 7 1
18 7 1
19 7 1
20 7 1
21 7 1
0 8 1
1 8 1
2 8 1
3 8 1
4 8 1
5 8 1
6 8 1
7 8 1
8 8 1
9 8 1
10 8 1
11 8 1
12 8 1
13 8 1
14 8 1
15 8 1
16 8 1
17 8 1
18 8 1
19 8 1
20 8 1
21 8 1
0 9 1
1 9 1
2 9 1
3 9 1
4 9 1
5 9 1
6 9 1
7 9 1
8 9 1
9 9 1
10 9 1
11 9 1
12 9 1
13 9 1
14 9 1
15 9 1
16 9 1
17 9 1
18 9 1
19 9 1
20 9 1
21 9 1
0 10 1
1 10 1
2 10 1
3 10 1
4 10 1
5 10 1
6 10 1
7 10 1
8 10 1
9 10 1
10 10 1
11 10 1
12 10 1
13 10 1
14 10 1
15 10 1
16 10 1
17 10 1
18 10 1
19 10 1
20 10 1
21 10 1
0 11 1
1 11 1
2 11 1
3 11 1
4 11 1
5 11 1
6 11 1
7 11 1
8 11 1
9 11 1
10 11 1
11 11 1
12 11 1
13 11 1
14 11 1
15 11 1
16 11 1
17 11 1
18 11 1
19 11 1
20 11 1
21 11 1
0 12 1
1 12 1
2 12 1
3 12 1
4 12 1
5 12 1
6 12 1
7 12 1
8 12 1
9 12 1
10 12 1
11 12 1
12 12 1
13 12 1
14 12 1
15 12 1
16 12 1
17 12 1
18 12 1
19 12 1
20 12 1
21 12 1
0 13 1
1 13 1
2 13 1
3 13 1
4 13 1
5 13 1
6 13 1
7 13 1
8 13 1
9 13 1
10 13 1
11 13 1
12 13 1
13 13 1
14 13 1
15 13 1
16 13 1
17 13 1
18 13 1
19 13 1
20 13 1
21 13 1
0 14 1
1 14 1
2 14 1
3 14 1
4 14 1
5 14 1
6 14 1
7 14 1
8 14 1
9 14 1
10 14 1
11 14 1
12 14 1
13 14 1
14 14 1
15 14 1
16 14 1
17 14 1
18 14 1
19 14 1
20 14 1
21 14 1
0 15 1
1 15 1
2 15 1
3 15 1
4 15 1
5 15 1
6 15 1
7 15 1
8 15 1
9 15 1
10 15 1
11 15 1
12 15 1
13 15 1
14 15 1
15 15 1
16 15 1
17 15 1
18 15 1
19 15 1
20 15 1
21 15 1
0 16 1
1 16 1
2 16 1
3 16 1
4 16 1
5 16 1
6 16 1
7 16 1
8 16 1
9 16 1
10 16 1
11 16 1
12 16 1
13 16 1
14 16 1
15 16 1
16 16 1
17 16 1
18 16 1
19 16 1
20 16 1
21 16 1
0 17 1
1 17 1
2 17 1
3 17 1
4 17 1
5 17 1
6 17 1
7 17 1
8 17 1
9 17 1
10 17 1
11 17 1
12 17 1
13 17 1
14 17 1
15 17 1
16 17 1
17 17 1
18 17 1
19 17 1
20 17 1
21 17 1
0 18 1
1 18 1
2 18 1
3 18 1
4 18 1
5 18 1
6 18 1
7 18 1
8 18 1
9 18 1
10 18 1
11 18 1
12 18 1
13 18 1
14 18 1
15 18 1
16 18 1
17 18 1
18 18 1
19 18 1
20 18 1
21 18 1
0 19 1
1 19 1
2 19 1
3 19 1
4 19 1
5 19 1
6 19 1
7 19 1
8 19 1
9 19 1
10 19 1
11 19 1
12 19 1
13 19 1
14 19 1
15 19 1
16 19 1
17 19 1
18 19 1
19 19 1
20 19 1
21 19 1
0 20 1
1 20 1
2 20 1
3 20 1
4 20 1
5 20 1
6 20 1
7 20 1
8 20 1
9 20 1
10 20 1
11 20 1
12 20 1
13 20 1
14 20 1
15 20 1
16 20 1
17 20 1
18 20 1
19 20 1
20 20 1
21 20 1
0 21 1
1 21 1
2 21 1
3 21 1
4 21 1
5 21 1
6 21 1
7 21 1
8 21 1
9 21 1
10 21 1
11 21 1
12 21 1
13 21 1
14 21 1
15 21 1
16 21 1
17 21 1
18 21 1
19 21 1
20 21 1
21 21 1
CELLS 441 3969
8 0 1 23 22 484 485 507 506
8 22 23 45 44 506 507 529 528
8 44 45 67 66 528 529 551 550
8 66 67 89 88 550 551 573 572
8 88 89 111 110 572 573 595 594
8 110 111 133 132 594 595 617 616
8 132 133 155 154 616 617 639 638
8 154 155 177 176 638 639 661 660
8 176 177 199 198 660 661 683 682
8 198 199 221 220 682 683 705 704
8 220 221 243 242 704 705 727 726
8 242 243 265 264 726 727 749 748
8 264 265 287 286 748 749 771 770
8 286 287 309 308 770 771 793 792
8 308 309 331 330 792 793 815 814
8 330 331 353 352 814 815 837 836
8 352 353 375 374 836 837 859 858
8 374 375 397 396 858 859 881 880
8 396 397 419 418 880 881 903 902
8 418 419 441 440 902 903 925 924
8 440 441 463 462 924 925 947 946
8 1 2 24 23 485 486 508 507
8 23 24 46 45 507 508 530 529
8 45 46 68 67 529 530 552 551
8 67 68 90 89 551 552 574 573
8 89 90 112 111 573 574 596 595
8 111 112 134 133 595 596 618 617
8 133 134 156 155 617 618 640 639
8 155 156 178 177 639 640 662 661
8 177 178 200 199 661 662 684 683
8 199 200 222 221 683 684 706 705
8 221 222 244 243 705 706 728 727
8 243 244 266 265 727 728 750 749
8 265 266 288 287 749 750 772 771
8 287 288 310 309 771 772 794 793
8 309 310 332 331 793 794 816 815
8 331 332 354 353 815 816 838 837
8 353 354 376 375 837 838 860 859
8 375 376 398 397 859 860 882 881
8 397 398 420 419 881 882 904 903
8 419 420 442 441 903 904 926 925
8 441 442 464 463 925 926 948 947
8 2 3 25 24 486 487 509 508
8 24 25 47 46 508 509 531 530
8 46 47 69 68 530 531 553 552
8 68 69 91 90 552 553 575 574
8 90 91 113 112 574 575 597 596
8 112 113 135 134 596 597 619 618
8 134 135 157 156 618 619 641 640
8 156 157 179 178 640 641 663 662
8 178 179 201 200 662 663 685 684
8 200 201 223 222 684 685 707 706
8 222 223 245 244 706 707 729 728
8 244 245 267 266 728 729 751 750
8 266 267 289 288 750 751 773 772
8 288 289 311 310 772 773 795 794
8 310 311 333 332 794 795 817 816
8 332 333 355 354 816 817 839 838
8 354 355 377 376 838 839 861 860
8 376 377 399 398 860 861 883 882
8 398 399 421 420 882 883 905 904
8 420 421 443 442 904 905 927 926
8 442 443 465 464 926 927 949 948
8 3 4 26 25 487 488 510 509
8 25 26 48 47 509 510 532 531
8 47 48 70 69 531 532 554 553
8 69 70 92 91 553 554 576 575
8 91 92 114 113 575 576 598 597
8 113 114 136 135 597 598 620 619
8 135 136 158 157 619 620 642 641
8 157 158 180 179 641 642 664 663
8 179 180 202 201 663 664 686 685
8 201 202 224 223 685 686 708 707
8 223 224 246 245 707 708 730 729
8 245 246 268 267 729 730 752 751
8 267 268 290 289 751 752 774 773
8 289 290 312 311 773 774 796 795
8 311 312 334 333 795 796 818 817
8 333 334 356 355 817 818 840 839
8 355 356 378 377 839 840 862 861
8 377 378 400 399 861 862 884 883
8 399 400 422 421 883 884 906 905
8 421 422 444 443 905 906 928 927
8 443 444 466 465 927 928 950 949
8 4 5 27 26 488 489 511 510
8 26 27 49 48 510 511 533 532
8 48 49 71 70 532 533 555 554
8 70 71 93 92 554 555 577 576
8 92 93 115 114 576 577 599 598
8 114 115 137 136 598 599 621 620
8 136 137 159 158 620 621 643 642
8 158 159 181 180 642 643 665 664
[...]
POINT_DATA 968
SCALARS GLOBAL_ID int 1
LOOKUP_TABLE default
-1 
-1 
-1 
-1 
-1 
-1 
-1 
-1 
-1 
-1 
-1 
-1 
-1 
-1 
-1 
-1 
-1 
-1 
-1 
-1 
-1 
-1 
-1 
-1 
-1 
-1 
-1 
-1 
-1 
-1 
-1 
-1 
-1 
-1 
-1 
-1 
-1 
-1 
-1 
-1 
-1 
-1 
-1 
-1 
-1 
-1 
-1 
-1 
-1 
-1 
-1 
-1 
-1 
-1 
-1 
-1 
-1 
-1 
-1 
-1 
-1 
-1 
-1 
-1 
-1 
-1 
-1 
-1 
-1 
-1 
-1 
-1 
-1 
-1 
-1 
-1 
-1 
-1 
-1 
-1 
-1 
-1 
-1 
-1 
-1 
-1 
-1 
-1 
-1 
-1 
-1 
-1 
-1 
-1 
-1 
-1 
-1 
-1 
-1 
-1 
-1 
-1 
-1 
-1 
-1 
-1 
-1 
-1 
-1 
-1 
-1 
-1 
-1 
-1 
-1 
-1 
-1 
-1 
-1 
-1 
-1 
-1 
-1 
-1 
-1 
-1 
-1 
-1 
-1 
-1 
-1 
-1 
-1 
-1 
-1 
-1 
-1 
-1 
-1 
-1 
-1 
-1 
-1 
-1 
-1 
-1 
-1 
-1 
-1 
-1 
-1 
-1 
-1 
-1 
-1 
-1 
-1 
-1 
-1 
-1 
-1 
-1 
-1 
-1 
-1 
-1 
-1 
-1 
-1 
-1 
-1 
-1 
-1 
-1 
-1 
-1 
-1 
-1 
-1 
-1 
-1 
-1 
-1 
-1 
-1 
-1 
-1 
-1 
-1 
-1 
-1 
-1 
-1 
-1 
-1 
-1 
-1 
-1 
-1 
-1 
-1 
-1 
-1 
-1 
-1 
-1 
-1 
-1 
-1 
-1 
-1 
-1 
-1 
-1 
-1 
-1 
-1 
-1 
-1 
-1 
-1 
-1 
-1 
-1 
-1 
-1 
-1 
-1 
-1 
-1 
-1 
-1 
-1 
-1 
-1 
-1 
-1 
-1 
-1 
-1 
-1 
-1 
-1 
-1 
-1 
-1 
-1 
-1 
-1 
-1 
-1 
-1 
-1 
-1 
-1 
-1 
-1 
-1 
-1 
-1 
-1 
-1 
-1 
-1 
-1 
-1 
-1 
-1 
-1 
-1 
-1 
-1 
-1 
-1 
-1 
-1 
-1 
-1 
-1 
-1 
-1 
-1 
-1 
-1 
-1 
-1 
-1 
-1 
-1 
-1 
-1 
-1 
-1 
-1 
-1 
-1 
-1 
-1 
-1 
-1 
-1 
-1 
-1 
-1 
-1 
-1 
-1 
-1 
-1 
-1 
-1 
-1 
-1 
-1 
-1 
-1 
-1 
-1 
-1 
-1 
-1 
-1 
-1 
-1 
-1 
-1 
-1 
-1 
-1 
-1 
-1 
-1 
-1 
-1 
-1 
-1 
-1 
-1 
-1 
-1 
-1 
-1 
-1 
-1 
-1 
-1 
-1 
-1 
-1 
-1 
-1 
-1 
-1 
-1 
-1 
-1 
-1 
-1 
-1 
-1 
-1 
-1 
-1 
-1 
-1 
-1 
-1 
-1 
-1 
-1 
-1 
-1 
-1 
-1 
-1 
-1 
-1 
-1 
-1 
-1 
-1 
-1 
-1 
-1 
-1 
-1 
-1 
-1 
-1 
-1 
-1 
-1 
-1 
-1 
-1 
-1 
-1 
-1 
-1 
-1 
-1 
-1 
-1 
-1 
-1 
-1 
-1 
-1 
-1 
-1 
-1 
-1 
-1 
-1 
-1 
-1 
-1 
-1 
-1 
-1 
-1 
-1 
-1 
-1 
-1 
-1 
-1 
-1 
-1 
-1 
-1 
-1 
-1 
-1 
-1 
-1 
-1 
-1 
-1 
-1 
-1 
-1 
-1 
-1 
-1 
-1 
-1 
-1 
-1 
-1 
-1 
-1 
-1 
-1 
-1 
-1 
-1 
-1 
-1 
-1 
-1 
-1 
-1 
-1 
-1 
-1 
-1 
-1 
-1 
-1 
-1 
-1 
-1 
-1 
-1 
-1 
-1 
-1 
-1 
-1 
-1 
-1 
-1 
-1 
-1 
-1 
-1 
-1 
-1 
-1 
-1 
-1 
-1 
-1 
-1 
-1 
-1 
-1 
-1 
-1 
-1 
-1 
-1 
-1 
-1 
-1 
-1 
-1 
-1 
-1 
-1 
-1 
-1 
-1 
-1 
-1 
-1 
-1 
-1 
-1 
-1 
-1 
-1 
-1 
-1 
-1 
-1 
-1 
-1 
-1 
-1 
-1 
-1 
-1 
-1 
-1 
-1 
-1 
-1 
-1 
-1 
-1 
-1 
-1 
-1 
-1 
-1 
-1 
-1 
-1 
-1 
-1 
-1 
-1 
-1 
-1 
-1 
-1 
-1 
-1 
-1 
-1 
-1 
-1 
-1 
-1 
-1 
-1 
-1 
-1 
-1 
-1 
-1 
-1 
-1 
-1 
-1 
-1 
-1 
-1 
-1 
-1 
-1 
-1 
-1 
-1 
-1 
-1 
-1 
-1 
-1 
-1 
-1 
-1 
-1 
-1 
-1 
-1 
-1 
-1 
-1 
-1 
-1 
-1 
-1 
-1 
-1 
-1 
-1 
-1 
-1 
-1 
-1 
-1 
-1 
-1 
-1 
-1 
-1 
-1 
-1 
-1 
-1 
-1 
-1 
-1 
-1 
-1 
-1 
-1 
-1 
-1 
-1 
-1 
-1 
-1 
-1 
-1 
-1 
-1 
-1 
-1 
-1 
-1 
-1 
-1 
-1 
-1 
-1 
-1 
-1 
-1 
-1 
-1 
-1 
-1 
-1 
-1 
-1 
-1 
-1 
-1 
-1 
-1 
-1 
-1 
-1 
-1 
-1 
-1 
-1 
-1 
-1 
-1 
-1 
-1 
-1 
-1 
-1 
-1 
-1 
-1 
-1 
-1 
-1 
-1 
-1 
-1 
-1 
-1 
-1 
-1 
-1 
-1 
-1 
-1 
-1 
-1 
-1 
-1 
-1 
-1 
-1 
-1 
-1 
-1 
-1 
-1 
-1 
-1 
-1 
-1 
-1 
-1 
-1 
-1 
-1 
-1 
-1 
-1 
-1 
-1 
-1 
-1 
-1 
-1 
-1 
-1 
-1 
-1 
-1 
-1 
-1 
-1 
-1 
-1 
-1 
-1 
-1 
-1 
-1 
-1 
-1 
-1 
-1 
-1 
-1 
-1 
-1 
-1 
-1 
-1 
-1 
-1 
-1 
-1 
-1 
-1 
-1 
-1 
-1 
-1 
-1 
-1 
-1 
-1 
-1 
-1 
-1 
-1 
-1 
-1 
-1 
-1 
-1 
-1 
-1 
-1 
-1 
-1 
-1 
-1 
-1 
-1 
-1 
-1 
-1 
-1 
-1 
-1 
-1 
-1 
-1 
-1 
-1 
-1 
-1 
-1 
-1 
-1 
-1 
-1 
-1 
-1 
-1 
-1 
-1 
-1 
-1 
-1 
-1 
-1 
-1 
-1 
-1 
-1 
-1 
-1 
-1 
-1 
-1 
-1 
-1 
-1 
-1 
-1 
-1 
-1 
-1 
-1 
-1 
-1 
-1 
-1 
-1 
-1 
-1 
-1 
-1 
-1 
-1 
-1 
-1 
-1 
-1 
-1 
-1 
-1 
-1 
-1 
-1 
-1 
-1 
-1 
-1 
-1 
-1 
-1 
-1 
-1 
-1 
-1 
-1 
-1 
-1 
-1 
-1 
-1 
-1 
-1 
-1 
-1 
-1 
-1 
-1 
-1 
-1 
-1 
-1 
-1 
-1 
-1 
-1 
-1 
-1 
-1 
-1 
-1 
-1 
-1 
-1 
-1 
-1 
-1 
-1 
-1 
-1 
-1 
-1 
-1 
-1 
-1 
-1 
-1 
-1 
-1 
-1 
-1 
-1 
-1 
-1 
-1 
-1 
-1 
-1 
-1 
-1 
-1 
-1 
-1 
-1 
-1 
-1 
-1 
-1 
-1 
-1 
-1 
-1 
-1 
-1 
-1 
-1 
-1 
-1 
-1 
-1 
-1 
-1 
-1 
-1 
-1 
-1 
-1 
-1 
-1 
-1 
-1 
-1 
-1 
-1 
-1 
-1 
-1 
-1 
-1 
-1 
-1 
-1 
-1 
-1 
-1 
-1 
-1 
-1 
-1 
-1 
-1 
CELL_DATA 441
SCALARS GLOBAL_ID int 1
LOOKUP_TABLE default
-1 
-1 
-1 
-1 
-1 
-1 
-1 
-1 
-1 
-1 
-1 
-1 
-1 
-1 
-1 
-1 
-1 
-1 
-1 
-1 
-1 
-1 
-1 
-1 
-1 
-1 
-1 
-1 
-1 
-1 
-1 
-1 
-1 
-1 
-1 
-1 
-1 
-1 
-1 
-1 
-1 
-1 
-1 
-1 
-1 
-1 
-1 
-1 
-1 
-1 
-1 
-1 
-1 
-1 
-1 
-1 
-1 
-1 
-1 
-1 
-1 
-1 
-1 
-1 
-1 
-1 
-1 
-1 
-1 
-1 
-1 
-1 
-1 
-1 
-1 
-1 
-1 
-1 
-1 
-1 
-1 
-1 
-1 
-1 
-1 
-1 
-1 
-1 
-1 
-1 
-1 
-1 
-1 
-1 
-1 
-1 
-1 
-1 
-1 
-1 
-1 
-1 
-1 
-1 
-1 
-1 
-1 
-1 
-1 
-1 
-1 
-1 
-1 
-1 
-1 
-1 
-1 
-1 
-1 
-1 
-1 
-1 
-1 
-1 
-1 
-1 
-1 
-1 
-1 
-1 
-1 
-1 
-1 
-1 
-1 
-1 
-1 
-1 
-1 
-1 
-1 
-1 
-1 
-1 
-1 
-1 
-1 
-1 
-1 
-1 
-1 
-1 
-1 
-1 
-1 
-1 
-1 
-1 
-1 
-1 
-1 
-1 
-1 
-1 
-1 
-1 
-1 
-1 
-1 
-1 
-1 
-1 
-1 
-1 
-1 
-1 
-1 
-1 
-1 
-1 
-1 
-1 
-1 
-1 
-1 
-1 
-1 
-1 
-1 
-1 
-1 
-1 
-1 
-1 
-1 
-1 
-1 
-1 
-1 
-1 
-1 
-1 
-1 
-1 
-1 
-1 
-1 
-1 
-1 
-1 
-1 
-1 
-1 
-1 
-1 
-1 
-1 
-1 
-1 
-1 
-1 
-1 
-1 
-1 
-1 
-1 
-1 
-1 
-1 
-1 
-1 
-1 
-1 
-1 
-1 
-1 
-1 
-1 
-1 
-1 
-1 
-1 
-1 
-1 
-1 
-1 
-1 
-1 
-1 
-1 
-1 
-1 
-1 
-1 
-1 
-1 
-1 
-1 
-1 
-1 
-1 
-1 
-1 
-1 
-1 
-1 
-1 
-1 
-1 
-1 
-1 
-1 
-1 
-1 
-1 
-1 
-1 
-1 
-1 
-1 
-1 
-1 
-1 
-1 
-1 
-1 
-1 
-1 
-1 
-1 
-1 
-1 
-1 
-1 
-1 
-1 
-1 
-1 
-1 
-1 
-1 
-1 
-1 
-1 
-1 
-1 
-1 
-1 
-1 
-1 
-1 
-1 
-1 
-1 
-1 
-1 
-1 
-1 
-1 
-1 
-1 
-1 
-1 
-1 
-1 
-1 
-1 
-1 
-1 
-1 
-1 
-1 
-1 
-1 
-1 
-1 
-1 
-1 
-1 
-1 
-1 
-1 
-1 
-1 
-1 
-1 
-1 
-1 
-1 
-1 
-1 
-1 
-1 
-1 
-1 
-1 
-1 
-1 
-1 
-1 
-1 
-1 
-1 
-1 
-1 
-1 
-1 
-1 
-1 
-1 
-1 
-1 
-1 
-1 
-1 
-1 
-1 
-1 
-1 
-1 
-1 
-1 
-1 
-1 
-1 
-1 
-1 
-1 
-1 
-1 
-1 
-1 
-1 
-1 
-1 
-1 
-1 
-1 
-1 
-1 
-1 
-1 
-1 
-1 
-1 
-1 
-1 
-1 
-1 
-1 
-1 
-1 
-1 
-1 
-1 
-1 
-1 
-1 
-1 
-1 
-1 
-1 
-1 
-1 
-1 
-1 
-1 
-1 
-1 
-1 
-1 
-1 
-1 
-1 
-1 
-1 
-1 
-1 
-1 
-1 
-1 
SCALARS pressure double 1
LOOKUP_TABLE default
100 
92.30493627 
86.29942795 
81.33748695 
76.87485278 
72.63008398 
68.55968551 
65.3625588 
63.29187509 
61.49764664 
59.80319225 
58.20175454 
56.69824022 
55.30613985 
54.04505505 
52.93605562 
51.99657895 
51.23819915 
50.66713467 
50.28596282 
50.09536276 
92.30493627 
88.51387748 
84.19016583 
79.95090497 
75.82889274 
71.75536441 
67.91117112 
65.15856652 
63.1888929 
61.40158599 
59.71017726 
58.10383115 
56.58682627 
55.17512429 
53.89296967 
52.76653287 
51.81548209 
51.05088383 
50.47724205 
50.09539102 
49.9047627 
86.29942795 
84.19016583 
81.11293866 
77.63470971 
73.95581275 
70.20255301 
67.01137975 
64.81884429 
62.9601463 
61.21000719 
59.53209966 
57.91656652 
56.37010943 
54.91456135 
53.58516649 
52.42162408 
51.4479327 
50.67261203 
50.09555867 
49.71359652 
49.52353432 
81.33748695 
79.95090497 
77.63470971 
74.74221431 
71.50435182 
68.4044241 
66.18217993 
64.35595475 
62.62781105 
60.9461997 
59.29164768 
57.66022585 
56.06248357 
54.5278452 
53.11151084 
51.88686428 
50.8820126 
50.09607294 
49.51878407 
49.13990206 
48.95224374 
76.87485278 
75.82889274 
73.95581275 
71.50435182 
68.9226974 
66.97079409 
65.36413973 
63.81222008 
62.24897554 
60.65533289 
59.02806549 
57.37020563 
55.69175381 
54.02282505 
52.44616739 
51.13230959 
50.09718048 
49.31088304 
48.74360262 
48.37498391 
48.19329485 
72.63008398 
71.75536441 
70.20255301 
68.4044241 
66.97079409 
65.73729225 
64.52115581 
63.27989576 
61.90053812 
60.39809085 
58.79507575 
57.10077738 
55.31150097 
53.42553381 
51.51802406 
50.09902622 
49.06351671 
48.30667612 
47.76975945 
47.42313611 
47.25265689 
68.55968551 
67.91117112 
67.01137975 
66.18217993 
65.36413973 
64.52115581 
63.70341242 
62.88566903 
61.67519034 
60.24141662 
58.65336929 
56.92632717 
55.02793888 
52.84978515 
50.10136883 
48.68225452 
47.751184 
47.0825453 
46.60562294 
46.2951442 
46.14153971 
65.3625588 
65.15856652 
64.81884429 
64.35595475 
63.81222008 
63.27989576 
62.88566903 
62.13921079 
60.64778573 
59.03991232 
57.29617374 
55.37275217 
53.12772275 
50.10400514 
47.3554116 
46.77743903 
46.17641947 
45.66669813 
45.27504281 
45.01027805 
44.87681804 
63.29187509 
63.1888929 
62.9601463 
62.62781105 
62.24897554 
61.90053812 
61.67519034 
60.64778573 
58.71147761 
56.77516949 
54.76417731 
52.59031407 
50.1097753 
47.08590901 
45.18193523 
44.89567053 
44.51035671 
44.13278493 
43.81757214 
43.59410715 
43.47863635 
61.49764664 
61.40158599 
61.21000719 
60.9461997 
60.65533289 
60.39809085 
60.24141662 
59.03991232 
56.77516949 
54.58511072 
52.39505195 
50.1145515 
47.63515537 
44.84808998 
43.29091943 
43.11295115 
42.83655192 
42.53651274 
42.26835367 
42.06994204 
41.96498388 
59.80319225 
59.71017726 
59.53209966 
59.29164768 
59.02806549 
58.79507575 
58.65336929 
57.29617374 
54.76417731 
52.39505195 
50.11636828 
47.83768461 
45.46820468 
42.93443545 
41.57476068 
41.42866271 
41.1863871 
40.90836042 
40.64938777 
40.45232347 
40.34637323 
58.20175454 
58.10383115 
57.91656652 
57.66022585 
57.37020563 
57.10077738 
56.92632717 
55.37275217 
52.59031407 
50.1145515 
47.83768461 
45.65161396 
43.46554331 
41.20364459 
40.00198326 
39.84055193 
39.57197334 
39.26115407 
38.96851352 
38.74359084 
38.62181235 
56.69824022 
56.58682627 
56.37010943 
56.06248357 
55.69175381 
55.31150097 
55.02793888 
53.12772275 
50.1097753 
47.63515537 
45.46820468 
43.46554331 
41.53871002 
39.61187673 
38.58823626 
38.35958839 
37.99980025 
37.59576903 
37.21992138 
36.93171401 
36.77547299 
55.30613985 
55.17512429 
54.91456135 
54.5278452 
54.02282505 
53.42553381 
52.84978515 
50.10400514 
47.08590901 
44.84808998 
42.93443545 
41.20364459 
39.61187673 
38.1385113 
37.4010919 
37.00976513 
36.47187024 
35.9022004 
35.38368897 
34.98787084 
34.77289259 
54.04505505 
53.89296967 
53.58516649 
53.11151084 
52.44616739 
51.51802406 
50.10136883 
47.3554116 
45.18193523 
43.29091943 
41.57476068 
40.00198326 
38.58823626 
37.4010919 
36.60380093 
35.80650997 
34.97571521 
34.15747334 
33.42476328 
32.86318779 
32.55533395 
52.93605562 
52.76653287 
52.42162408 
51.88686428 
51.13230959 
50.09902622 
48.68225452 
46.77743903 
44.89567053 
43.11295115 
41.42866271 
39.84055193 
38.35958839 
37.00976513 
35.80650997 
34.63675862 
33.46700727 
32.32721447 
31.294703 
30.48478311 
30.02992146 
51.99657895 
51.81548209 
51.4479327 
50.8820126 
50.09718048 
49.06351671 
47.751184 
46.17641947 
44.51035671 
42.83655192 
41.1863871 
39.57197334 
37.99980025 
36.47187024 
34.97571521 
33.46700727 
31.92834078 
30.38967428 
28.94205116 
27.75132016 
27.04964734 
51.23819915 
51.05088383 
50.67261203 
50.09607294 
49.31088304 
48.30667612 
47.0825453 
45.66669813 
44.13278493 
42.53651274 
40.90836042 
39.26115407 
37.59576903 
35.9022004 
34.15747334 
32.32721447 
30.38967428 
28.36109073 
26.33250718 
24.52879903 
23.36770039 
50.66713467 
50.47724205 
50.09555867 
49.51878407 
48.74360262 
47.76975945 
46.60562294 
45.27504281 
43.81757214 
42.26835367 
40.64938777 
38.96851352 
37.21992138 
35.38368897 
33.42476328 
31.294703 
28.94205116 
26.33250718 
23.49808779 
20.66366841 
18.5246548 
50.28596282 
50.09539102 
49.71359652 
49.13990206 
48.37498391 
47.42313611 
46.2951442 
45.01027805 
43.59410715 
42.06994204 
40.45232347 
38.74359084 
36.93171401 
34.98787084 
32.86318779 
30.48478311 
27.75132016 
24.52879903 
20.66366841 
16.103132 
11.5425956 
50.09536276 
49.9047627 
49.52353432 
48.95224374 
48.19329485 
47.25265689 
46.14153971 
44.87681804 
43.47863635 
41.96498388 
40.34637323 
38.62181235 
36.77547299 
34.77289259 
32.55533395 
30.02992146 
27.04964734 
23.36770039 
18.5246548 
11.5425956 
0 
SCALARS saturation double 1
LOOKUP_TABLE default
0.8 
0.7285566138 
0.6801975606 
0.6293064497 
0.5692464432 
0.4858531622 
0.3547062972 
0.2272487328 
0.2006219949 
0.2000002973 
0.2 
0.2 
0.2 
0.2 
0.2 
0.2 
0.2 
0.2 
0.2 
0.2 
0.2 
0.7285566138 
0.6897264827 
0.647492895 
0.5986344209 
0.5352298692 
0.4387640373 
0.2944956528 
0.2088157805 
0.2000637853 
0.2000000031 
0.2 
0.2 
0.2 
0.2 
0.2 
0.2 
0.2 
0.2 
0.2 
0.2 
0.2 
0.6801975606 
0.647492895 
0.6077162811 
0.5563734767 
0.4809641667 
0.3578518292 
0.2302302845 
0.2007962387 
0.200000496 
0.2 
0.2 
0.2 
0.2 
0.2 
0.2 
0.2 
0.2 
0.2 
0.2 
0.2 
0.2 
0.6293064497 
0.5986344209 
0.5563734767 
0.4936877442 
0.3901563162 
0.2534993956 
0.20265144 
0.200005473 
0.2 
0.2 
0.2 
0.2 
0.2 
0.2 
0.2 
0.2 
0.2 
0.2 
0.2 
0.2 
0.2 
0.5692464432 
0.5352298692 
0.4809641667 
0.3901563162 
0.2634736467 
0.204280062 
0.2000146028 
0.2000000001 
0.2 
0.2 
0.2 
0.2 
0.2 
0.2 
0.2 
0.2 
0.2 
0.2 
0.2 
0.2 
0.2 
0.4858531622 
0.4387640373 
0.3578518292 
0.2534993956 
0.204280062 
0.2000187231 
0.2000000002 
0.2 
0.2 
0.2 
0.2 
0.2 
0.2 
0.2 
0.2 
0.2 
0.2 
0.2 
0.2 
0.2 
0.2 
0.3547062972 
0.2944956528 
0.2302302845 
0.20265144 
0.2000146028 
0.2000000002 
0.2 
0.2 
0.2 
0.2 
0.2 
0.2 
0.2 
0.2 
0.2 
0.2 
0.2 
0.2 
0.2 
0.2 
0.2 
0.2272487328 
0.2088157805 
0.2007962387 
0.200005473 
0.2000000001 
0.2 
0.2 
0.2 
0.2 
0.2 
0.2 
0.2 
0.2 
0.2 
0.2 
0.2 
0.2 
0.2 
0.2 
0.2 
0.2 
0.2006219949 
0.2000637853 
0.200000496 
0.2 
0.2 
0.2 
0.2 
0.2 
0.2 
0.2 
0.2 
0.2 
0.2 
0.2 
0.2 
0.2 
0.2 
0.2 
0.2 
0.2 
0.2 
0.2000002973 
0.2000000031 
0.2 
0.2 
0.2 
0.2 
0.2 
0.2 
0.2 
0.2 
0.2 
0.2 
0.2 
0.2 
0.2 
0.2 
0.2 
0.2 
0.2 
0.2 
0.2 
0.2 
0.2 
0.2 
0.2 
0.2 
0.2 
0.2 
0.2 
0.2 
0.2 
0.2 
0.2 
0.2 
0.2 
0.2 
0.2 
0.2 
0.2 
0.2 
0.2 
0.2 
0.2 
0.2 
0.2 
0.2 
0.2 
0.2 
0.2 
0.2 
0.2 
0.2 
0.2 
0.2 
0.2 
0.2 
0.2 
0.2 
0.2 
0.2 
0.2 
0.2 
0.2 
0.2 
0.2 
0.2 
0.2 
0.2 
0.2 
0.2 
0.2 
0.2 
0.2 
0.2 
0.2 
0.2 
0.2 
0.2 
0.2 
0.2 
0.2 
0.2 
0.2 
0.2 
0.2 
0.2 
0.2 
0.2 
0.2 
0.2 
0.2 
0.2 
0.2 
0.2 
0.2 
0.2 
0.2 
0.2 
0.2 
0.2 
0.2 
0.2 
0.2 
0.2 
0.2 
0.2 
0.2 
0.2 
0.2 
0.2 
0.2 
0.2 
0.2 
0.2 
0.2 
0.2 
0.2 
0.2 
0.2 
0.2 
0.2 
0.2 
0.2 
0.2 
0.2 
0.2 
0.2 
0.2 
0.2 
0.2 
0.2 
0.2 
0.2 
0.2 
0.2 
0.2 
0.2 
0.2 
0.2 
0.2 
0.2 
0.2 
0.2 
0.2 
0.2 
0.2 
0.2 
0.2 
0.2 
0.2 
0.2 
0.2 
0.2 
0.2 
0.2 
0.2 
0.2 
0.2 
0.2 
0.2 
0.2 
0.2 
0.2 
0.2 
0.2 
0.2 
0.2 
0.2 
0.2 
0.2 
0.2 
0.2 
0.2 
0.2 
0.2 
0.2 
0.2 
0.2 
0.2 
0.2 
0.2 
0.2 
0.2 
0.2 
0.2 
0.2 
0.2 
0.2 
0.2 
0.2 
0.2 
0.2 
0.2 
0.2 
0.2 
0.2 
0.2 
0.2 
0.2 
0.2 
0.2 
0.2 
0.2 
0.2 
0.2 
0.2 
0.2 
0.2 
0.2 
0.2 
0.2 
0.2 
0.2 
0.2 
0.2 
0.2 
0.2 
0.2 
0.2 
0.2 
0.2 
0.2 
0.2 
0.2 
0.2 
0.2 
0.2 
0.2 
0.2 
0.2 
0.2 
0.2 
0.2 
0.2 
0.2 
0.2 
0.2 
0.2 
0.2 
0.2 
0.2 
0.2 
0.2 
0.2 
0.2 
0.2 
0.2 
0.2 
0.2 
0.2 
0.2 
0.2 
SCALARS permeabilityx double 1
LOOKUP_TABLE default
1 
1 
1 
1 
1 
1 
1 
1 
1 
1 
1 
1 
1 
1 
1 
1 
1 
1 
1 
1 
1 
1 
1 
1 
1 
1 
1 
1 
1 
1 
1 
1 
1 
1 
1 
1 
1 
1 
1 
1 
1 
1 
1 
1 
1 
1 
1 
1 
1 
1 
1 
1 
1 
1 
1 
1 
1 
1 
1 
1 
1 
1 
1 
1 
1 
1 
1 
1 
1 
1 
1 
1 
1 
1 
1 
1 
1 
1 
1 
1 
1 
1 
1 
1 
1 
1 
1 
1 
1 
1 
1 
1 
1 
1 
1 
1 
1 
1 
1 
1 
1 
1 
1 
1 
1 
1 
1 
1 
1 
1 
1 
1 
1 
1 
1 
1 
1 
1 
1 
1 
1 
1 
1 
1 
1 
1 
1 
1 
1 
1 
1 
1 
1 
1 
1 
1 
1 
1 
1 
1 
1 
1 
1 
1 
1 
1 
1 
1 
1 
1 
1 
1 
1 
1 
0.001 
0.001 
0.001 
0.001 
0.001 
0.001 
0.001 
1 
1 
1 
1 
1 
1 
1 
1 
1 
1 
1 
1 
1 
1 
0.001 
0.001 
0.001 
0.001 
0.001 
0.001 
0.001 
1 
1 
1 
1 
1 
1 
1 
1 
1 
1 
1 
1 
1 
1 
0.001 
0.001 
0.001 
0.001 
0.001 
0.001 
0.001 
1 
1 
1 
1 
1 
1 
1 
1 
1 
1 
1 
1 
1 
1 
0.001 
0.001 
0.001 
0.001 
0.001 
0.001 
0.001 
1 
1 
1 
1 
1 
1 
1 
1 
1 
1 
1 
1 
1 
1 
0.001 
0.001 
0.001 
0.001 
0.001 
0.001 
0.001 
1 
1 
1 
1 
1 
1 
1 
1 
1 
1 
1 
1 
1 
1 
0.001 
0.001 
0.001 
0.001 
0.001 
0.001 
0.001 
1 
1 
1 
1 
1 
1 
1 
1 
1 
1 
1 
1 
1 
1 
0.001 
0.001 
0.001 
0.001 
0.001 
0.001 
0.001 
1 
1 
1 
1 
1 
1 
1 
1 
1 
1 
1 
1 
1 
1 
1 
1 
1 
1 
1 
1 
1 
1 
1 
1 
1 
1 
1 
1 
1 
1 
1 
1 
1 
1 
1 
1 
1 
1 
1 
1 
1 
1 
1 
1 
1 
1 
1 
1 
1 
1 
1 
1 
1 
1 
1 
1 
1 
1 
1 
1 
1 
1 
1 
1 
1 
1 
1 
1 
1 
1 
1 
1 
1 
1 
1 
1 
1 
1 
1 
1 
1 
1 
1 
1 
1 
1 
1 
1 
1 
1 
1 
1 
1 
1 
1 
1 
1 
1 
1 
1 
1 
1 
1 
1 
1 
1 
1 
1 
1 
1 
1 
1 
1 
1 
1 
1 
1 
1 
1 
1 
1 
1 
1 
1 
1 
1 
1 
1 
1 
1 
1 
1 
1 
1 
1 
1 
1 
1 
1 
1 
1 
1 
1 
1 
1 
1 
1 
1 
1 
1 
1 
1 
1 
1 
