# vtk DataFile Version 3.0
MOAB 5.4.1
ASCII
DATASET UNSTRUCTURED_GRID
POINTS 968 double
0 0 0
1 0 0
2 0 0
3 0 0
4 0 0
5 0 0
6 0 0
7 0 0
8 0 0
9 0 0
10 0 0
11 0 0
12 0 0
13 0 0
14 0 0
15 0 0
16 0 0
17 0 0
18 0 0
19 0 0
20 0 0
21 0 0
0 1 0
1 1 0
2 1 0
3 1 0
4 1 0
5 1 0
6 1 0
7 1 0
8 1 0
9 1 0
10 1 0
11 1 0
12 1 0
13 1 0
14 1 0
15 1 0
16 1 0
17 1 0
18 1 0
19 1 0
20 1 0
21 1 0
0 2 0
1 2 0
2 2 0
3 2 0
4 2 0
5 2 0
6 2 0
7 2 0
8 2 0
9 2 0
10 2 0
11 2 0
12 2 0
13 2 0
14 2 0
15 2 0
16 2 0
17 2 0
18 2 0
19 2 0
20 2 0
21 2 0
0 3 0
1 3 0
2 3 0
3 3 0
4 3 0
5 3 0
6 3 0
7 3 0
8 3 0
9 3 0
10 3 0
11 3 0
12 3 0
13 3 0
14 3 0
15 3 0
16 3 0
17 3 0
18 3 0
19 3 0
20 3 0
21 3 0
0 4 0
1 4 0
2 4 0
3 4 0
4 4 0
5 4 0
6 4 0
7 4 0
8 4 0
9 4 0
10 4 0
11 4 0
12 4 0
13 4 0
14 4 0
15 4 0
16 4 0
17 4 0
18 4 0
19 4 0
20 4 0
21 4 0
0 5 0
1 5 0
2 5 0
3 5 0
4 5 0
5 5 0
6 5 0
7 5 0
8 5 0
9 5 0
10 5 0
11 5 0
12 5 0
13 5 0
14 5 0
15 5 0
16 5 0
17 5 0
18 5 0
19 5 0
20 5 0
21 5 0
0 6 0
1 6 0
2 6 0
3 6 0
4 6 0
5 6 0
6 6 0
7 6 0
8 6 0
9 6 0
10 6 0
11 6 0
12 6 0
13 6 0
14 6 0
15 6 0
16 6 0
17 6 0
18 6 0
19 6 0
20 6 0
21 6 0
0 7 0
1 7 0
2 7 0
3 7 0
4 7 0
5 7 0
6 7 0
7 7 0
8 7 0
9 7 0
10 7 0
11 7 0
12 7 0
13 7 0
14 7 0
15 7 0
16 7 0
17 7 0
18 7 0
19 7 0
20 7 0
21 7 0
0 8 0
1 8 0
2 8 0
3 8 0
4 8 0
5 8 0
6 8 0
7 8 0
8 8 0
9 8 0
10 8 0
11 8 0
12 8 0
13 8 0
14 8 0
15 8 0
16 8 0
17 8 0
18 8 0
19 8 0
20 8 0
21 8 0
0 9 0
1 9 0
2 9 0
3 9 0
4 9 0
5 9 0
6 9 0
7 9 0
8 9 0
9 9 0
10 9 0
11 9 0
12 9 0
13 9 0
14 9 0
15 9 0
16 9 0
17 9 0
18 9 0
19 9 0
20 9 0
21 9 0
0 10 0
1 10 0
2 10 0
3 10 0
4 10 0
5 10 0
6 10 0
7 10 0
8 10 0
9 10 0
10 10 0
11 10 0
12 10 0
13 10 0
14 10 0
15 10 0
16 10 0
17 10 0
18 10 0
19 10 0
20 10 0
21 10 0
0 11 0
1 11 0
2 11 0
3 11 0
4 11 0
5 11 0
6 11 0
7 11 0
8 11 0
9 11 0
10 11 0
11 11 0
12 11 0
13 11 0
14 11 0
15 11 0
16 11 0
17 11 0
18 11 0
19 11 0
20 11 0
21 11 0
0 12 0
1 12 0
2 12 0
3 12 0
4 12 0
5 12 0
6 12 0
7 12 0
8 12 0
9 12 0
10 12 0
11 12 0
12 12 0
13 12 0
14 12 0
15 12 0
16 12 0
17 12 0
18 12 0
19 12 0
20 12 0
21 12 0
0 13 0
1 13 0
2 13 0
3 13 0
4 13 0
5 13 0
6 13 0
7 13 0
8 13 0
9 13 0
10 13 0
11 13 0
12 13 0
13 13 0
14 13 0
15 13 0
16 13 0
17 13 0
18 13 0
19 13 0
20 13 0
21 13 0
0 14 0
1 14 0
2 14 0
3 14 0
4 14 0
5 14 0
6 14 0
7 14 0
8 14 0
9 14 0
10 14 0
11 14 0
12 14 0
13 14 0
14 14 0
15 14 0
16 14 0
17 14 0
18 14 0
19 14 0
20 14 0
21 14 0
0 15 0
1 15 0
2 15 0
3 15 0
4 15 0
5 15 0
6 15 0
7 15 0
8 15 0
9 15 0
10 15 0
11 15 0
12 15 0
13 15 0
14 15 0
15 15 0
16 15 0
17 15 0
18 15 0
19 15 0
20 15 0
21 15 0
0 16 0
1 16 0
2 16 0
3 16 0
4 16 0
5 16 0
6 16 0
7 16 0
8 16 0
9 16 0
10 16 0
11 16 0
12 16 0
13 16 0
14 16 0
15 16 0
16 16 0
17 16 0
18 16 0
19 16 0
20 16 0
21 16 0
0 17 0
1 17 0
2 17 0
3 17 0
4 17 0
5 17 0
6 17 0
7 17 0
8 17 0
9 17 0
10 17 0
11 17 0
12 17 0
13 17 0
14 17 0
15 17 0
16 17 0
17 17 0
18 17 0
19 17 0
20 17 0
21 17 0
0 18 0
1 18 0
2 18 0
3 18 0
4 18 0
5 18 0
6 18 0
7 18 0
8 18 0
9 18 0
10 18 0
11 18 0
12 18 0
13 18 0
14 18 0
15 18 0
16 18 0
17 18 0
18 18 0
19 18 0
20 18 0
21 18 0
0 19 0
1 19 0
2 19 0
3 19 0
4 19 0
5 19 0
6 19 0
7 19 0
8 19 0
9 19 0
10 19 0
11 19 0
12 19 0
13 19 0
14 19 0
15 19 0
16 19 0
17 19 0
18 19 0
19 19 0
20 19 0
21 19 0
0 20 0
1 20 0
2 20 0
3 20 0
4 20 0
5 20 0
6 20 0
7 20 0
8 20 0
9 20 0
10 20 0
11 20 0
12 20 0
13 20 0
14 20 0
15 20 0
16 20 0
17 20 0
18 20 0
19 20 0
20 20 0
21 20 0
0 21 0
1 21 0
2 21 0
3 21 0
4 21 0
5 21 0
6 21 0
7 21 0
8 21 0
9 21 0
10 21 0
11 21 0
12 21 0
13 21 0
14 21 0
15 21 0
16 21 0
17 21 0
18 21 0
19 21 0
20 21 0
21 21 0
0 0 1
1 0 1
2 0 1
3 0 1
4 0 1
5 0 1
6 0 1
7 0 1
8 0 1
9 0 1
10 0 1
11 0 1
12 0 1
13 0 1
14 0 1
15 0 1
16 0 1
17 0 1
18 0 1
19 0 1
20 0 1
21 0 1
0 1 1
1 1 1
2 1 1
3 1 1
4 1 1
5 1 1
6 1 1
7 1 1
8 1 1
9 1 1
10 1 1
11 1 1
12 1 1
13 1 1
14 1 1
15 1 1
16 1 1
17 1 1
18 1 1
19 1 1
20 1 1
21 1 1
0 2 1
1 2 1
2 2 1
3 2 1
4 2 1
5 2 1
6 2 1
7 2 1
8 2 1
9 2 1
10 2 1
11 2 1
12 2 1
13 2 1
14 2 1
15 2 1
16 2 1
17 2 1
18 2 1
19 2 1
20 2 1
21 2 1
0 3 1
1 3 1
2 3 1
3 3 1
4 3 1
5 3 1
6 3 1
7 3 1
8 3 1
9 3 1
10 3 1
11 3 1
12 3 1
13 3 1
14 3 1
15 3 1
16 3 1
17 3 1
18 3 1
19 3 1
20 3 1
21 3 1
0 4 1
1 4 1
2 4 1
3 4 1
4 4 1
5 4 1
6 4 1
7 4 1
8 4 1
9 4 1
10 4 1
11 4 1
12 4 1
13 4 1
14 4 1
15 4 1
16 4 1
17 4 1
18 4 1
19 4 1
20 4 1
21 4 1
0 5 1
1 5 1
2 5 1
3 5 1
4 5 1
5 5 1
6 5 1
7 5 1
8 5 1
9 5 1
10 5 1
11 5 1
12 5 1
13 5 1
14 5 1
15 5 1
16 5 1
17 5 1
18 5 1
19 5 1
20 5 1
21 5 1
0 6 1
1 6 1
2 6 1
3 6 1
4 6 1
5 6 1
6 6 1
7 6 1
8 6 1
9 6 1
10 6 1
11 6 1
12 6 1
13 6 1
14 6 1
15 6 1
16 6 1
17 6 1
18 6 1
19 6 1
20 6 1
21 6 1
0 7 1
1 7 1
2 7 1
3 7 1
4 7 1
5 7 1
6 7 1
7 7 1
8 7 1
9 7 1
10 7 1
11 7 1
12 7 1
13 7 1
14 7 1
15 7 1
16 7 1
17 7 1
18 7 1
19 7 1
20 7 1
21 7 1
0 8 1
1 8 1
2 8 1
3 8 1
4 8 1
5 8 1
6 8 1
7 8 1
8 8 1
9 8 1
10 8 1
11 8 1
12 8 1
13 8 1
14 8 1
15 8 1
16 8 1
17 8 1
18 8 1
19 8 1
20 8 1
21 8 1
0 9 1
1 9 1
2 9 1
3 9 1
4 9 1
5 9 1
6 9 1
7 9 1
8 9 1
9 9 1
10 9 1
11 9 1
12 9 1
13 9 1
14 9 1
15 9 1
16 9 1
17 9 1
18 9 1
19 9 1
20 9 1
21 9 1
0 10 1
1 10 1
2 10 1
3 10 1
4 10 1
5 10 1
6 10 1
7 10 1
8 10 1
9 10 1
10 10 1
11 10 1
12 10 1
13 10 1
14 10 1
15 10 1
16 10 1
17 10 1
18 10 1
19 10 1
20 10 1
21 10 1
0 11 1
1 11 1
2 11 1
3 11 1
4 11 1
5 11 1
6 11 1
7 11 1
8 11 1
9 11 1
10 11 1
11 11 1
12 11 1
13 11 1
14 11 1
15 11 1
16 11 1
17 11 1
18 11 1
19 11 1
20 11 1
21 11 1
0 12 1
1 12 1
2 12 1
3 12 1
4 12 1
5 12 1
6 12 1
7 12 1
8 12 1
9 12 1
10 12 1
11 12 1
12 12 1
13 12 1
14 12 1
15 12 1
16 12 1
17 12 1
18 12 1
19 12 1
20 12 1
21 12 1
0 13 1
1 13 1
2 13 1
3 13 1
4 13 1
5 13 1
6 13 1
7 13 1
8 13 1
9 13 1
10 13 1
11 13 1
12 13 1
13 13 1
14 13 1
15 13 1
16 13 1
17 13 1
18 13 1
19 13 1
20 13 1
21 13 1
0 14 1
1 14 1
2 14 1
3 14 1
4 14 1
5 14 1
6 14 1
7 14 1
8 14 1
9 14 1
10 14 1
11 14 1
12 14 1
13 14 1
14 14 1
15 14 1
16 14 1
17 14 1
18 14 1
19 14 1
20 14 1
21 14 1
0 15 1
1 15 1
2 15 1
3 15 1
4 15 1
5 15 1
6 15 1
7 15 1
8 15 1
9 15 1
10 15 1
11 15 1
12 15 1
13 15 1
14 15 1
15 15 1
16 15 1
17 15 1
18 15 1
19 15 1
20 15 1
21 15 1
0 16 1
1 16 1
2 16 1
3 16 1
4 16 1
5 16 1
6 16 1
7 16 1
8 16 1
9 16 1
10 16 1
11 16 1
12 16 1
13 16 1
14 16 1
15 16 1
16 16 1
17 16 1
18 16 1
19 16 1
20 16 1
21 16 1
0 17 1
1 17 1
2 17 1
3 17 1
4 17 1
5 17 1
6 17 1
7 17 1
8 17 1
9 17 1
10 17 1
11 17 1
12 17 1
13 17 1
14 17 1
15 17 1
16 17 1
17 17 1
18 17 1
19 17 1
20 17 1
21 17 1
0 18 1
1 18 1
2 18 1
3 18 1
4 18 1
5 18 1
6 18 1
7 18 1
8 18 1
9 18 1
10 18 1
11 18 1
12 18 1
13 18 1
14 18 1
15 18 1
16 18 1
17 18 1
18 18 1
19 18 1
20 18 1
21 18 1
0 19 1
1 19 1
2 19 1
3 19 1
4 19 1
5 19 1
6 19 1
7 19 1
8 19 1
9 19 1
10 19 1
11 19 1
12 19 1
13 19 1
14 19 1
15 19 1
16 19 1
17 19 1
18 19 1
19 19 1
20 19 1
21 19 1
0 20 1
1 20 1
2 20 1
3 20 1
4 20 1
5 20 1
6 20 1
7 20 1
8 20 1
9 20 1
10 20 1
11 20 1
12 20 1
13 20 1
14 20 1
15 20 1
16 20 1
17 20 1
18 20 1
19 20 1
20 20 1
21 20 1
0 21 1
1 21 1
2 21 1
3 21 1
4 21 1
5 21 1
6 21 1
7 21 1
8 21 1
9 21 1
10 21 1
11 21 1
12 21 1
13 21 1
14 21 1
15 21 1
16 21 1
17 21 1
18 21 1
19 21 1
20 21 1
21 21 1
CELLS 441 3969
8 0 1 23 22 484 485 507 506
8 22 23 45 44 506 507 529 528
8 44 45 67 66 528 529 551 550
8 66 67 89 88 550 551 573 572
8 88 89 111 110 572 573 595 594
8 110 111 133 132 594 595 617 616
8 132 133 155 154 616 617 639 638
8 154 155 177 176 638 639 661 660
8 176 177 199 198 660 661 683 682
8 198 199 221 220 682 683 705 704
8 220 221 243 242 704 705 727 726
8 242 243 265 264 726 727 749 748
8 264 265 287 286 748 749 771 770
8 286 287 309 308 770 771 793 792
8 308 309 331 330 792 793 815 814
8 330 331 353 352 814 815 837 836
8 352 353 375 374 836 837 859 858
8 374 375 397 396 858 859 881 880
8 396 397 419 418 880 881 903 902
8 418 419 441 440 902 903 925 924
8 440 441 463 462 924 925 947 946
8 1 2 24 23 485 486 508 507
8 23 24 46 45 507 508 530 529
8 45 46 68 67 529 530 552 551
8 67 68 90 89 551 552 574 573
8 89 90 112 111 573 574 596 595
8 111 112 134 133 595 596 618 617
8 133 134 156 155 617 618 640 639
8 155 156 178 177 639 640 662 661
8 177 178 200 199 661 662 684 683
8 199 200 222 221 683 684 706 705
8 221 222 244 243 705 706 728 727
8 243 244 266 265 727 728 750 749
8 265 266 288 287 749 750 772 771
8 287 288 310 309 771 772 794 793
8 309 310 332 331 793 794 816 815
8 331 332 354 353 815 816 838 837
8 353 354 376 375 837 838 860 859
8 375 376 398 397 859 860 882 881
8 397 398 420 419 881 882 904 903
8 419 420 442 441 903 904 926 925
8 441 442 464 463 925 926 948 947
8 2 3 25 24 486 487 509 508
8 24 25 47 46 508 509 531 530
8 46 47 69 68 530 531 553 552
8 68 69 91 90 552 553 575 574
8 90 91 113 112 574 575 597 596
8 112 113 135 134 596 597 619 618
8 134 135 157 156 618 619 641 640
8 156 157 179 178 640 641 663 662
8 178 179 201 200 662 663 685 684
8 200 201 223 222 684 685 707 706
8 222 223 245 244 706 707 729 728
8 244 245 267 266 728 729 751 750
8 266 267 289 288 750 751 773 772
8 288 289 311 310 772 773 795 794
8 310 311 333 332 794 795 817 816
8 332 333 355 354 816 817 839 838
8 354 355 377 376 838 839 861 860
8 376 377 399 398 860 861 883 882
8 398 399 421 420 882 883 905 904
8 420 421 443 442 904 905 927 926
8 442 443 465 464 926 927 949 948
8 3 4 26 25 487 488 510 509
8 25 26 48 47 509 510 532 531
8 47 48 70 69 531 532 554 553
8 69 70 92 91 553 554 576 575
8 91 92 114 113 575 576 598 597
8 113 114 136 135 597 598 620 619
8 135 136 158 157 619 620 642 641
8 157 158 180 179 641 642 664 663
8 179 180 202 201 663 664 686 685
8 201 202 224 223 685 686 708 707
8 223 224 246 245 707 708 730 729
8 245 246 268 267 729 730 752 751
8 267 268 290 289 751 752 774 773
8 289 290 312 311 773 774 796 795
8 311 312 334 333 795 796 818 817
8 333 334 356 355 817 818 840 839
8 355 356 378 377 839 840 862 861
8 377 378 400 399 861 862 884 883
8 399 400 422 421 883 884 906 905
8 421 422 444 443 905 906 928 927
8 443 444 466 465 927 928 950 949
8 4 5 27 26 488 489 511 510
8 26 27 49 48 510 511 533 532
8 48 49 71 70 532 533 555 554
8 70 71 93 92 554 555 577 576
8 92 93 115 114 576 577 599 598
8 114 115 137 136 598 599 621 620
8 136 137 159 158 620 621 643 642
8 158 159 181 180 642 643 665 664
[...]
POINT_DATA 968
SCALARS GLOBAL_ID int 1
LOOKUP_TABLE default
-1 
-1 
-1 
-1 
-1 
-1 
-1 
-1 
-1 
-1 
-1 
-1 
-1 
-1 
-1 
-1 
-1 
-1 
-1 
-1 
-1 
-1 
-1 
-1 
-1 
-1 
-1 
-1 
-1 
-1 
-1 
-1 
-1 
-1 
-1 
-1 
-1 
-1 
-1 
-1 
-1 
-1 
-1 
-1 
-1 
-1 
-1 
-1 
-1 
-1 
-1 
-1 
-1 
-1 
-1 
-1 
-1 
-1 
-1 
-1 
-1 
-1 
-1 
-1 
-1 
-1 
-1 
-1 
-1 
-1 
-1 
-1 
-1 
-1 
-1 
-1 
-1 
-1 
-1 
-1 
-1 
-1 
-1 
-1 
-1 
-1 
-1 
-1 
-1 
-1 
-1 
-1 
-1 
-1 
-1 
-1 
-1 
-1 
-1 
-1 
-1 
-1 
-1 
-1 
-1 
-1 
-1 
-1 
-1 
-1 
-1 
-1 
-1 
-1 
-1 
-1 
-1 
-1 
-1 
-1 
-1 
-1 
-1 
-1 
-1 
-1 
-1 
-1 
-1 
-1 
-1 
-1 
-1 
-1 
-1 
-1 
-1 
-1 
-1 
-1 
-1 
-1 
-1 
-1 
-1 
-1 
-1 
-1 
-1 
-1 
-1 
-1 
-1 
-1 
-1 
-1 
-1 
-1 
-1 
-1 
-1 
-1 
-1 
-1 
-1 
-1 
-1 
-1 
-1 
-1 
-1 
-1 
-1 
-1 
-1 
-1 
-1 
-1 
-1 
-1 
-1 
-1 
-1 
-1 
-1 
-1 
-1 
-1 
-1 
-1 
-1 
-1 
-1 
-1 
-1 
-1 
-1 
-1 
-1 
-1 
-1 
-1 
-1 
-1 
-1 
-1 
-1 
-1 
-1 
-1 
-1 
-1 
-1 
-1 
-1 
-1 
-1 
-1 
-1 
-1 
-1 
-1 
-1 
-1 
-1 
-1 
-1 
-1 
-1 
-1 
-1 
-1 
-1 
-1 
-1 
-1 
-1 
-1 
-1 
-1 
-1 
-1 
-1 
-1 
-1 
-1 
-1 
-1 
-1 
-1 
-1 
-1 
-1 
-1 
-1 
-1 
-1 
-1 
-1 
-1 
-1 
-1 
-1 
-1 
-1 
-1 
-1 
-1 
-1 
-1 
-1 
-1 
-1 
-1 
-1 
-1 
-1 
-1 
-1 
-1 
-1 
-1 
-1 
-1 
-1 
-1 
-1 
-1 
-1 
-1 
-1 
-1 
-1 
-1 
-1 
-1 
-1 
-1 
-1 
-1 
-1 
-1 
-1 
-1 
-1 
-1 
-1 
-1 
-1 
-1 
-1 
-1 
-1 
-1 
-1 
-1 
-1 
-1 
-1 
-1 
-1 
-1 
-1 
-1 
-1 
-1 
-1 
-1 
-1 
-1 
-1 
-1 
-1 
-1 
-1 
-1 
-1 
-1 
-1 
-1 
-1 
-1 
-1 
-1 
-1 
-1 
-1 
-1 
-1 
-1 
-1 
-1 
-1 
-1 
-1 
-1 
-1 
-1 
-1 
-1 
-1 
-1 
-1 
-1 
-1 
-1 
-1 
-1 
-1 
-1 
-1 
-1 
-1 
-1 
-1 
-1 
-1 
-1 
-1 
-1 
-1 
-1 
-1 
-1 
-1 
-1 
-1 
-1 
-1 
-1 
-1 
-1 
-1 
-1 
-1 
-1 
-1 
-1 
-1 
-1 
-1 
-1 
-1 
-1 
-1 
-1 
-1 
-1 
-1 
-1 
-1 
-1 
-1 
-1 
-1 
-1 
-1 
-1 
-1 
-1 
-1 
-1 
-1 
-1 
-1 
-1 
-1 
-1 
-1 
-1 
-1 
-1 
-1 
-1 
-1 
-1 
-1 
-1 
-1 
-1 
-1 
-1 
-1 
-1 
-1 
-1 
-1 
-1 
-1 
-1 
-1 
-1 
-1 
-1 
-1 
-1 
-1 
-1 
-1 
-1 
-1 
-1 
-1 
-1 
-1 
-1 
-1 
-1 
-1 
-1 
-1 
-1 
-1 
-1 
-1 
-1 
-1 
-1 
-1 
-1 
-1 
-1 
-1 
-1 
-1 
-1 
-1 
-1 
-1 
-1 
-1 
-1 
-1 
-1 
-1 
-1 
-1 
-1 
-1 
-1 
-1 
-1 
-1 
-1 
-1 
-1 
-1 
-1 
-1 
-1 
-1 
-1 
-1 
-1 
-1 
-1 
-1 
-1 
-1 
-1 
-1 
-1 
-1 
-1 
-1 
-1 
-1 
-1 
-1 
-1 
-1 
-1 
-1 
-1 
-1 
-1 
-1 
-1 
-1 
-1 
-1 
-1 
-1 
-1 
-1 
-1 
-1 
-1 
-1 
-1 
-1 
-1 
-1 
-1 
-1 
-1 
-1 
-1 
-1 
-1 
-1 
-1 
-1 
-1 
-1 
-1 
-1 
-1 
-1 
-1 
-1 
-1 
-1 
-1 
-1 
-1 
-1 
-1 
-1 
-1 
-1 
-1 
-1 
-1 
-1 
-1 
-1 
-1 
-1 
-1 
-1 
-1 
-1 
-1 
-1 
-1 
-1 
-1 
-1 
-1 
-1 
-1 
-1 
-1 
-1 
-1 
-1 
-1 
-1 
-1 
-1 
-1 
-1 
-1 
-1 
-1 
-1 
-1 
-1 
-1 
-1 
-1 
-1 
-1 
-1 
-1 
-1 
-1 
-1 
-1 
-1 
-1 
-1 
-1 
-1 
-1 
-1 
-1 
-1 
-1 
-1 
-1 
-1 
-1 
-1 
-1 
-1 
-1 
-1 
-1 
-1 
-1 
-1 
-1 
-1 
-1 
-1 
-1 
-1 
-1 
-1 
-1 
-1 
-1 
-1 
-1 
-1 
-1 
-1 
-1 
-1 
-1 
-1 
-1 
-1 
-1 
-1 
-1 
-1 
-1 
-1 
-1 
-1 
-1 
-1 
-1 
-1 
-1 
-1 
-1 
-1 
-1 
-1 
-1 
-1 
-1 
-1 
-1 
-1 
-1 
-1 
-1 
-1 
-1 
-1 
-1 
-1 
-1 
-1 
-1 
-1 
-1 
-1 
-1 
-1 
-1 
-1 
-1 
-1 
-1 
-1 
-1 
-1 
-1 
-1 
-1 
-1 
-1 
-1 
-1 
-1 
-1 
-1 
-1 
-1 
-1 
-1 
-1 
-1 
-1 
-1 
-1 
-1 
-1 
-1 
-1 
-1 
-1 
-1 
-1 
-1 
-1 
-1 
-1 
-1 
-1 
-1 
-1 
-1 
-1 
-1 
-1 
-1 
-1 
-1 
-1 
-1 
-1 
-1 
-1 
-1 
-1 
-1 
-1 
-1 
-1 
-1 
-1 
-1 
-1 
-1 
-1 
-1 
-1 
-1 
-1 
-1 
-1 
-1 
-1 
-1 
-1 
-1 
-1 
-1 
-1 
-1 
-1 
-1 
-1 
-1 
-1 
-1 
-1 
-1 
-1 
-1 
-1 
-1 
-1 
-1 
-1 
-1 
-1 
-1 
-1 
-1 
-1 
-1 
-1 
-1 
-1 
-1 
-1 
-1 
-1 
-1 
-1 
-1 
-1 
-1 
-1 
-1 
-1 
-1 
-1 
-1 
-1 
-1 
-1 
-1 
-1 
-1 
-1 
-1 
-1 
-1 
-1 
-1 
-1 
-1 
-1 
-1 
-1 
-1 
-1 
-1 
-1 
-1 
-1 
-1 
-1 
-1 
-1 
-1 
-1 
-1 
-1 
-1 
-1 
-1 
-1 
-1 
-1 
-1 
-1 
-1 
-1 
-1 
-1 
-1 
-1 
-1 
-1 
-1 
-1 
-1 
-1 
-1 
-1 
-1 
-1 
-1 
-1 
-1 
-1 
-1 
-1 
-1 
-1 
-1 
-1 
-1 
-1 
-1 
-1 
-1 
-1 
-1 
-1 
-1 
-1 
-1 
-1 
-1 
-1 
-1 
-1 
-1 
-1 
-1 
-1 
-1 
-1 
-1 
-1 
-1 
-1 
-1 
-1 
-1 
-1 
-1 
-1 
-1 
-1 
-1 
-1 
-1 
-1 
-1 
-1 
-1 
-1 
-1 
-1 
-1 
-1 
-1 
-1 
-1 
-1 
-1 
-1 
-1 
-1 
-1 
-1 
-1 
-1 
-1 
-1 
-1 
-1 
-1 
-1 
-1 
-1 
CELL_DATA 441
SCALARS GLOBAL_ID int 1
LOOKUP_TABLE default
-1 
-1 
-1 
-1 
-1 
-1 
-1 
-1 
-1 
-1 
-1 
-1 
-1 
-1 
-1 
-1 
-1 
-1 
-1 
-1 
-1 
-1 
-1 
-1 
-1 
-1 
-1 
-1 
-1 
-1 
-1 
-1 
-1 
-1 
-1 
-1 
-1 
-1 
-1 
-1 
-1 
-1 
-1 
-1 
-1 
-1 
-1 
-1 
-1 
-1 
-1 
-1 
-1 
-1 
-1 
-1 
-1 
-1 
-1 
-1 
-1 
-1 
-1 
-1 
-1 
-1 
-1 
-1 
-1 
-1 
-1 
-1 
-1 
-1 
-1 
-1 
-1 
-1 
-1 
-1 
-1 
-1 
-1 
-1 
-1 
-1 
-1 
-1 
-1 
-1 
-1 
-1 
-1 
-1 
-1 
-1 
-1 
-1 
-1 
-1 
-1 
-1 
-1 
-1 
-1 
-1 
-1 
-1 
-1 
-1 
-1 
-1 
-1 
-1 
-1 
-1 
-1 
-1 
-1 
-1 
-1 
-1 
-1 
-1 
-1 
-1 
-1 
-1 
-1 
-1 
-1 
-1 
-1 
-1 
-1 
-1 
-1 
-1 
-1 
-1 
-1 
-1 
-1 
-1 
-1 
-1 
-1 
-1 
-1 
-1 
-1 
-1 
-1 
-1 
-1 
-1 
-1 
-1 
-1 
-1 
-1 
-1 
-1 
-1 
-1 
-1 
-1 
-1 
-1 
-1 
-1 
-1 
-1 
-1 
-1 
-1 
-1 
-1 
-1 
-1 
-1 
-1 
-1 
-1 
-1 
-1 
-1 
-1 
-1 
-1 
-1 
-1 
-1 
-1 
-1 
-1 
-1 
-1 
-1 
-1 
-1 
-1 
-1 
-1 
-1 
-1 
-1 
-1 
-1 
-1 
-1 
-1 
-1 
-1 
-1 
-1 
-1 
-1 
-1 
-1 
-1 
-1 
-1 
-1 
-1 
-1 
-1 
-1 
-1 
-1 
-1 
-1 
-1 
-1 
-1 
-1 
-1 
-1 
-1 
-1 
-1 
-1 
-1 
-1 
-1 
-1 
-1 
-1 
-1 
-1 
-1 
-1 
-1 
-1 
-1 
-1 
-1 
-1 
-1 
-1 
-1 
-1 
-1 
-1 
-1 
-1 
-1 
-1 
-1 
-1 
-1 
-1 
-1 
-1 
-1 
-1 
-1 
-1 
-1 
-1 
-1 
-1 
-1 
-1 
-1 
-1 
-1 
-1 
-1 
-1 
-1 
-1 
-1 
-1 
-1 
-1 
-1 
-1 
-1 
-1 
-1 
-1 
-1 
-1 
-1 
-1 
-1 
-1 
-1 
-1 
-1 
-1 
-1 
-1 
-1 
-1 
-1 
-1 
-1 
-1 
-1 
-1 
-1 
-1 
-1 
-1 
-1 
-1 
-1 
-1 
-1 
-1 
-1 
-1 
-1 
-1 
-1 
-1 
-1 
-1 
-1 
-1 
-1 
-1 
-1 
-1 
-1 
-1 
-1 
-1 
-1 
-1 
-1 
-1 
-1 
-1 
-1 
-1 
-1 
-1 
-1 
-1 
-1 
-1 
-1 
-1 
-1 
-1 
-1 
-1 
-1 
-1 
-1 
-1 
-1 
-1 
-1 
-1 
-1 
-1 
-1 
-1 
-1 
-1 
-1 
-1 
-1 
-1 
-1 
-1 
-1 
-1 
-1 
-1 
-1 
-1 
-1 
-1 
-1 
-1 
-1 
-1 
-1 
-1 
-1 
-1 
-1 
-1 
-1 
-1 
-1 
-1 
-1 
-1 
-1 
-1 
-1 
-1 
-1 
-1 
-1 
-1 
-1 
-1 
-1 
-1 
-1 
-1 
-1 
-1 
-1 
-1 
-1 
-1 
-1 
-1 
-1 
-1 
-1 
-1 
-1 
SCALARS pressure double 1
LOOKUP_TABLE default
100 
92.01478551 
87.02937801 
83.45380475 
80.62363358 
78.22598019 
76.09223754 
74.12172599 
72.25142176 
70.44336768 
68.67886167 
66.95529416 
65.28391896 
63.68733364 
62.19539929 
60.83890652 
59.64249432 
58.6206424 
57.77600494 
57.10426929 
56.69281221 
92.01478551 
88.77911274 
85.47075408 
82.57979101 
80.0763339 
77.85790242 
75.8332776 
73.93257525 
72.10568471 
70.32068777 
68.56221422 
66.83000238 
65.13788526 
63.51251546 
61.98991747 
60.6074986 
59.39275578 
58.35939475 
57.50753512 
56.83025917 
56.4177028 
87.02937801 
85.47075408 
83.36493169 
81.19978572 
79.1352944 
77.19578183 
75.35739552 
73.58268359 
71.83612691 
70.09359543 
68.34459159 
66.59229702 
64.85443887 
63.16513708 
61.57439083 
60.13703752 
58.8861224 
57.83186299 
56.96798433 
56.28213509 
55.8679775 
83.45380475 
82.57979101 
81.19978572 
79.60904422 
77.96678353 
76.33691248 
74.7283267 
73.1204172 
71.48277603 
69.79682666 
68.0569376 
66.26891418 
64.4525531 
62.64991157 
60.93581501 
59.40864848 
58.10678497 
57.0279819 
56.15220246 
55.4578163 
55.0443428 
80.62363358 
80.0763339 
79.1352944 
77.96678353 
76.6891363 
75.36575821 
74.01278186 
72.60667321 
71.10043684 
69.47987682 
67.74573512 
65.90391332 
63.96802401 
61.97750526 
60.04099862 
58.3834018 
57.02767553 
55.93348462 
55.05439686 
54.35567156 
53.95038397 
78.22598019 
77.85790242 
77.19578183 
76.33691248 
75.36575821 
74.33761128 
73.26822042 
72.1148772 
70.75767273 
69.20450733 
67.47225807 
65.56440305 
63.47028458 
61.18331116 
58.79862191 
56.98491613 
55.60966804 
54.53425022 
53.67259168 
52.97797937 
52.59706013 
76.09223754 
75.8332776 
75.35739552 
74.7283267 
74.01278186 
73.26822042 
72.52884739 
71.75150559 
70.53848058 
69.03816534 
67.30597933 
65.34378216 
63.09850472 
60.41992541 
56.91769717 
55.07731749 
53.81403962 
52.82918639 
52.01687161 
51.33607063 
51.00770109 
74.12172599 
73.93257525 
73.58268359 
73.1204172 
72.60667321 
72.1148772 
71.75150559 
70.85984101 
69.13719983 
67.2832339 
65.22795499 
62.90699597 
60.15011067 
56.46167921 
53.30607773 
52.52268673 
51.66199182 
50.85648491 
50.1202598 
49.45996854 
49.21967706 
72.25142176 
72.10568471 
71.83612691 
71.48277603 
71.10043684 
70.75767273 
70.53848058 
69.13719983 
66.73901252 
64.39623235 
61.95076316 
59.29183285 
56.25853622 
52.61349243 
50.39200263 
49.97329086 
49.3730473 
48.71283017 
48.03934572 
47.41641554 
47.27912249 
70.44336768 
70.32068777 
70.09359543 
69.79682666 
69.47987682 
69.20450733 
69.03816534 
67.2832339 
64.39623235 
61.6825897 
58.96895311 
56.1438199 
53.08616115 
49.6869192 
47.81344549 
47.52785821 
47.05319619 
46.46745596 
45.82012821 
45.30642352 
45.23535503 
68.67886167 
68.56221422 
68.34459159 
68.0569376 
67.74573512 
67.47225807 
67.30597933 
65.22795499 
61.95076316 
58.96895311 
56.09864687 
53.22834063 
50.25537881 
47.10432019 
45.43213373 
45.18199396 
44.73604623 
44.14971005 
43.48688397 
43.18356502 
43.12682326 
66.95529416 
66.83000238 
66.59229702 
66.26891418 
65.90391332 
65.56440305 
65.34378216 
62.90699597 
59.29183285 
56.1438199 
53.22834063 
50.41551695 
47.60269327 
44.71169443 
43.1973803 
42.92037495 
42.42409832 
41.77314027 
41.14119316 
41.01972036 
40.96212595 
65.28391896 
65.13788526 
64.85443887 
64.4525531 
63.96802401 
63.47028458 
63.09850472 
60.15011067 
56.25853622 
53.08616115 
50.25537881 
47.60269327 
45.02818288 
42.45367249 
41.10818395 
40.73518509 
40.11298461 
39.382333 
38.954841 
38.82385228 
38.73986191 
63.68733364 
63.51251546 
63.16513708 
62.64991157 
61.97750526 
61.18331116 
60.41992541 
56.46167921 
52.61349243 
49.6869192 
47.10432019 
44.71169443 
42.45367249 
40.30942896 
39.23623507 
38.65464089 
37.86971961 
37.18466821 
36.84157853 
36.58418493 
36.4336084 
62.19539929 
61.98991747 
61.57439083 
60.93581501 
60.04099862 
58.79862191 
56.91769717 
53.30607773 
50.39200263 
47.81344549 
45.43213373 
43.1973803 
41.10818395 
39.23623507 
37.93889785 
36.90506537 
36.00406531 
35.28254092 
34.70165553 
34.23787409 
33.97677836 
60.83890652 
60.6074986 
60.13703752 
59.40864848 
58.3834018 
56.98491613 
55.07731749 
52.52268673 
49.97329086 
47.52785821 
45.18199396 
42.92037495 
40.73518509 
38.65464089 
36.90506537 
35.61025201 
34.46975491 
33.40502284 
32.44750194 
31.68887821 
31.25885259 
59.64249432 
59.39275578 
58.8861224 
58.10678497 
57.02767553 
55.60966804 
53.81403962 
51.66199182 
49.3730473 
47.05319619 
44.73604623 
42.42409832 
40.11298461 
37.86971961 
36.00406531 
34.46975491 
32.94742931 
31.42660591 
29.99445762 
28.81128421 
28.11090121 
58.6206424 
58.35939475 
57.83186299 
57.0279819 
55.93348462 
54.53425022 
52.82918639 
50.85648491 
48.71283017 
46.46745596 
44.14971005 
41.77314027 
39.382333 
37.18466821 
35.28254092 
33.40502284 
31.42660591 
29.35952217 
27.29243842 
25.45089981 
24.26256682 
57.77600494 
57.50753512 
56.96798433 
56.15220246 
55.05439686 
53.67259168 
52.01687161 
50.1202598 
48.03934572 
45.82012821 
43.48688397 
41.14119316 
38.954841 
36.84157853 
34.70165553 
32.44750194 
29.99445762 
27.29243842 
24.3648741 
21.43730978 
19.22589944 
57.10426929 
56.83025917 
56.28213509 
55.4578163 
54.35567156 
52.97797937 
51.33607063 
49.45996854 
47.41641554 
45.30642352 
43.18356502 
41.01972036 
38.82385228 
36.58418493 
34.23787409 
31.68887821 
28.81128421 
25.45089981 
21.43730978 
16.70756575 
11.97782173 
56.69281221 
56.4177028 
55.8679775 
55.0443428 
53.95038397 
52.59706013 
51.00770109 
49.21967706 
47.27912249 
45.23535503 
43.12682326 
40.96212595 
38.73986191 
36.4336084 
33.97677836 
31.25885259 
28.11090121 
24.26256682 
19.22589944 
11.97782173 
0 
SCALARS saturation double 1
LOOKUP_TABLE default
0.8 
0.7912874624 
0.7825241126 
0.7720382257 
0.7602886463 
0.7477598915 
0.7348548838 
0.7218745243 
0.7090096987 
0.6963376127 
0.6838257596 
0.6713371654 
0.6586244185 
0.645297845 
0.6307433918 
0.6139234435 
0.5928165078 
0.562527805 
0.5085918537 
0.3863362927 
0.2229102119 
0.7912874624 
0.7846642323 
0.7761611646 
0.7660374423 
0.7546842121 
0.7425192227 
0.7299254653 
0.7172176315 
0.7046164641 
0.6922287379 
0.6800448893 
0.667942852 
0.6556791604 
0.642850667 
0.6288052382 
0.6124437085 
0.5916800258 
0.5615248908 
0.5072688562 
0.3837268136 
0.2217302469 
0.7825241126 
0.7761611646 
0.7679341114 
0.7581693572 
0.7472074967 
0.7354079916 
0.7231317178 
0.7107171441 
0.6984378549 
0.6864468097 
0.67476637 
0.6632936707 
0.6517864043 
0.6398093357 
0.626625559 
0.6109973295 
0.590736973 
0.5607516931 
0.506060419 
0.3808048979 
0.2202910475 
0.7720382257 
0.7660374423 
0.7581693572 
0.7487807685 
0.7381753805 
0.726666534 
0.7146037122 
0.7023813891 
0.690382298 
0.6788231389 
0.6677614091 
0.6571222256 
0.6466776346 
0.6359579985 
0.6240835152 
0.6095102367 
0.5898984697 
0.5600456854 
0.5046315574 
0.3767894121 
0.2182801339 
0.7602886463 
0.7546842121 
0.7472074967 
0.7381753805 
0.7278377458 
0.716443918 
0.7043191192 
0.6919678486 
0.680054344 
0.6688506059 
0.6584264359 
0.6487513391 
0.6396639107 
0.6307111829 
0.620825771 
0.6077383718 
0.5889125925 
0.5590529341 
0.5023626294 
0.3702800516 
0.2152556 
0.7477598915 
0.7425192227 
0.7354079916 
0.726666534 
0.716443918 
0.7048425998 
0.6920283171 
0.6786138163 
0.6663085629 
0.655187094 
0.6452167091 
0.6364380791 
0.6288977888 
0.6223769906 
0.6157374103 
0.6048907946 
0.5870879899 
0.5570133173 
0.4981170171 
0.3588600725 
0.2109523288 
0.7348548838 
0.7299254653 
0.7231317178 
0.7146037122 
0.7043191192 
0.6920283171 
0.6770561295 
0.6584492806 
0.64470402 
0.6329312108 
0.6226698201 
0.6140585296 
0.6076657214 
0.6043403347 
0.604051334 
0.5980358386 
0.5824569675 
0.5522893115 
0.4897703253 
0.3384978324 
0.2059201817 
0.7218745243 
0.7172176315 
0.7107171441 
0.7023813891 
0.6919678486 
0.6786138163 
0.6584492806 
0.211294119 
0.207035315 
0.2074598356 
0.2076209049 
0.2078280151 
0.2084325672 
0.2102062971 
0.5965865528 
0.5900558705 
0.5745176135 
0.5431888704 
0.4740294344 
0.3045294323 
0.2019528984 
0.7090096987 
0.7046164641 
0.6984378549 
0.690382298 
0.680054344 
0.6663085629 
0.64470402 
0.207035315 
0.2000010972 
0.2000006687 
0.2000007236 
0.2000007761 
0.2000009008 
0.2000012234 
0.5871524858 
0.5800863869 
0.5633544553 
0.5286460203 
0.4465112013 
0.2588455963 
0.2003127983 
0.6963376127 
0.6922287379 
0.6864468097 
0.6788231389 
0.6688506059 
0.655187094 
0.6329312108 
0.2074598356 
0.2000006687 
0.2 
0.2 
0.2 
0.2 
0.2 
0.575191163 
0.5669771243 
0.5475678545 
0.5058259916 
0.3998378697 
0.2189478745 
0.2000194722 
0.6838257596 
0.6800448893 
0.67476637 
0.6677614091 
0.6584264359 
0.6452167091 
0.6226698201 
0.2076209049 
0.2000007236 
0.2 
0.2 
0.2 
0.2 
0.2 
0.5587723623 
0.548224491 
0.5238029415 
0.4685050484 
0.3262294011 
0.2023430085 
0.2000002248 
0.6713371654 
0.667942852 
0.6632936707 
0.6571222256 
0.6487513391 
0.6364380791 
0.6140585296 
0.2078280151 
0.2000007761 
0.2 
0.2 
0.2 
0.2 
0.2 
0.5333145312 
0.5185852967 
0.4850408375 
0.405183912 
0.2436217832 
0.2001358185 
0.2000000008 
0.6586244185 
0.6556791604 
0.6517864043 
0.6466776346 
0.6396639107 
0.6288977888 
0.6076657214 
0.2084325672 
0.2000009008 
0.2 
0.2 
0.2 
0.2 
0.2 
0.4877661419 
0.4662077283 
0.4167484075 
0.307376938 
0.205162615 
0.2000031858 
0.2 
0.645297845 
0.642850667 
0.6398093357 
0.6359579985 
0.6307111829 
0.6223769906 
0.6043403347 
0.2102062971 
0.2000012234 
0.2 
0.2 
0.2 
0.2 
0.2 
0.3939958888 
0.3665103838 
0.3046814436 
0.2224327975 
0.2001747253 
0.2000000067 
0.2 
0.6307433918 
0.6288052382 
0.626625559 
0.6240835152 
0.620825771 
0.6157374103 
0.604051334 
0.5965865528 
0.5871524858 
0.575191163 
0.5587723623 
0.5333145312 
0.4877661419 
0.3939958888 
0.2829090653 
0.2424087506 
0.2157178121 
0.2008438232 
0.2000003885 
0.2 
0.2 
0.6139234435 
0.6124437085 
0.6109973295 
0.6095102367 
0.6077383718 
0.6048907946 
0.5980358386 
0.5900558705 
0.5800863869 
0.5669771243 
0.548224491 
0.5185852967 
0.4662077283 
0.3665103838 
0.2424087506 
0.2033242383 
0.2002964241 
0.2000011001 
0.2 
0.2 
0.2 
0.5928165078 
0.5916800258 
0.590736973 
0.5898984697 
0.5889125925 
0.5870879899 
0.5824569675 
0.5745176135 
0.5633544553 
0.5475678545 
0.5238029415 
0.4850408375 
0.4167484075 
0.3046814436 
0.2157178121 
0.2002964241 
0.2000002061 
0.2 
0.2 
0.2 
0.2 
0.562527805 
0.5615248908 
0.5607516931 
0.5600456854 
0.5590529341 
0.5570133173 
0.5522893115 
0.5431888704 
0.5286460203 
0.5058259916 
0.4685050484 
0.405183912 
0.307376938 
0.2224327975 
0.2008438232 
0.2000011001 
0.2 
0.2 
0.2 
0.2 
0.2 
0.5085918537 
0.5072688562 
0.506060419 
0.5046315574 
0.5023626294 
0.4981170171 
0.4897703253 
0.4740294344 
0.4465112013 
0.3998378697 
0.3262294011 
0.2436217832 
0.205162615 
0.2001747253 
0.2000003885 
0.2 
0.2 
0.2 
0.2 
0.2 
0.2 
0.3863362927 
0.3837268136 
0.3808048979 
0.3767894121 
0.3702800516 
0.3588600725 
0.3384978324 
0.3045294323 
0.2588455963 
0.2189478745 
0.2023430085 
0.2001358185 
0.2000031858 
0.2000000067 
0.2 
0.2 
0.2 
0.2 
0.2 
0.2 
0.2 
0.2229102119 
0.2217302469 
0.2202910475 
0.2182801339 
0.2152556 
0.2109523288 
0.2059201817 
0.2019528984 
0.2003127983 
0.2000194722 
0.2000002248 
0.2000000008 
0.2 
0.2 
0.2 
0.2 
0.2 
0.2 
0.2 
0.2 
0.2 
SCALARS permeabilityx double 1
LOOKUP_TABLE default
1 
1 
1 
1 
1 
1 
1 
1 
1 
1 
1 
1 
1 
1 
1 
1 
1 
1 
1 
1 
1 
1 
1 
1 
1 
1 
1 
1 
1 
1 
1 
1 
1 
1 
1 
1 
1 
1 
1 
1 
1 
1 
1 
1 
1 
1 
1 
1 
1 
1 
1 
1 
1 
1 
1 
1 
1 
1 
1 
1 
1 
1 
1 
1 
1 
1 
1 
1 
1 
1 
1 
1 
1 
1 
1 
1 
1 
1 
1 
1 
1 
1 
1 
1 
1 
1 
1 
1 
1 
1 
1 
1 
1 
1 
1 
1 
1 
1 
1 
1 
1 
1 
1 
1 
1 
1 
1 
1 
1 
1 
1 
1 
1 
1 
1 
1 
1 
1 
1 
1 
1 
1 
1 
1 
1 
1 
1 
1 
1 
1 
1 
1 
1 
1 
1 
1 
1 
1 
1 
1 
1 
1 
1 
1 
1 
1 
1 
1 
1 
1 
1 
1 
1 
1 
0.001 
0.001 
0.001 
0.001 
0.001 
0.001 
0.001 
1 
1 
1 
1 
1 
1 
1 
1 
1 
1 
1 
1 
1 
1 
0.001 
0.001 
0.001 
0.001 
0.001 
0.001 
0.001 
1 
1 
1 
1 
1 
1 
1 
1 
1 
1 
1 
1 
1 
1 
0.001 
0.001 
0.001 
0.001 
0.001 
0.001 
0.001 
1 
1 
1 
1 
1 
1 
1 
1 
1 
1 
1 
1 
1 
1 
0.001 
0.001 
0.001 
0.001 
0.001 
0.001 
0.001 
1 
1 
1 
1 
1 
1 
1 
1 
1 
1 
1 
1 
1 
1 
0.001 
0.001 
0.001 
0.001 
0.001 
0.001 
0.001 
1 
1 
1 
1 
1 
1 
1 
1 
1 
1 
1 
1 
1 
1 
0.001 
0.001 
0.001 
0.001 
0.001 
0.001 
0.001 
1 
1 
1 
1 
1 
1 
1 
1 
1 
1 
1 
1 
1 
1 
0.001 
0.001 
0.001 
0.001 
0.001 
0.001 
0.001 
1 
1 
1 
1 
1 
1 
1 
1 
1 
1 
1 
1 
1 
1 
1 
1 
1 
1 
1 
1 
1 
1 
1 
1 
1 
1 
1 
1 
1 
1 
1 
1 
1 
1 
1 
1 
1 
1 
1 
1 
1 
1 
1 
1 
1 
1 
1 
1 
1 
1 
1 
1 
1 
1 
1 
1 
1 
1 
1 
1 
1 
1 
1 
1 
1 
1 
1 
1 
1 
1 
1 
1 
1 
1 
1 
1 
1 
1 
1 
1 
1 
1 
1 
1 
1 
1 
1 
1 
1 
1 
1 
1 
1 
1 
1 
1 
1 
1 
1 
1 
1 
1 
1 
1 
1 
1 
1 
1 
1 
1 
1 
1 
1 
1 
1 
1 
1 
1 
1 
1 
1 
1 
1 
1 
1 
1 
1 
1 
1 
1 
1 
1 
1 
1 
1 
1 
1 
1 
1 
1 
1 
1 
1 
1 
1 
1 
1 
1 
1 
1 
1 
1 
1 
1 
